! Touchstone file exported from HFSS 2021.1.0
!        File:           C:/Users/Vins/Desktop/ATT-IV - WEST TWA/ANSYS/TWA bumpers/WEST_TWA_7s_4.aedt
!        Generated:      5:02:59  sept. 29, 2021
!        Design:         No_FS_protruding
!        Project:        WEST_TWA_7s_4
!        Setup:          Setup1
!        Solution:       Sweep
!
! Variables:
!        antbox_d = 225mm
!        antbox_h = 250mm
!        antbox_w = 1950mm
!        bmp_h = 1000mm
!        box_t = 10mm
!        d_lat_y = 2000mm
!        d_lat_z = 2000mm
!        l_CS = 0mm
!        load_d = 200mm
!        load_h = 4250mm
!        load_t = 200mm
!        load_w = 5950mm
!        prot_d = 200mm
!        strap_ar = 60mm
!        strap_h = 250mm
!        strap_t = 15mm
!        strap_w = 200mm
!        sz = 250mm
!        wp_g = 10mm
!        wp_l = 200mm
!
!Data is not renormalized
# GHz S MA R 8.597565
! Terminal data exported
! Port[1] = 1
! Port[2] = 2
! Port[3] = 3
! Port[4] = 4
! Port[5] = 5
! Port[6] = 6
! Port[7] = 7
0.045                          0.92568526393053 42.1178025677897 0.219133923776435 -47.0876262192466 0.0326720106977103 -80.2626979109052 0.00798631868002924 -78.0902908956141 
                               0.00413545833189781 -77.9759634960496 0.00225951232921251 -90.5839098485919 0.0014122613090356 -103.747790643679 
                               0.219133923776435 -47.0876262192466 0.907333003365811 44.9084040039585 0.215421813230892 -46.5144736924974 0.0320557659742731 -80.1720262027237 
                               0.00784340600552915 -79.4296584014887 0.0040234145622914 -78.5963511206025 0.00225836056051591 -90.7500258820952 
                               0.0326720106977103 -80.2626979109052 0.215421813230892 -46.5144736924974 0.907703086694245 44.9145608686225 0.215410099248289 -46.4950337011432 
                               0.0320411384369151 -80.1884179738104 0.00784395181485182 -79.4620824960425 0.0041302366917739 -78.1328708359869 
                               0.00798631868002924 -78.0902908956141 0.0320557659742731 -80.1720262027237 0.215410099248289 -46.4950337011432 0.907716754788425 44.9126896839671 
                               0.215399970858073 -46.4898449690295 0.0320462314615057 -80.175640513464 0.00797542239331287 -78.2053953146111 
                               0.00413545833189781 -77.9759634960496 0.00784340600552916 -79.4296584014887 0.0320411384369151 -80.1884179738104 0.215399970858073 -46.4898449690295 
                               0.907668300975841 44.9116561202665 0.215385361712604 -46.5112506061188 0.0326510163890774 -80.2740125493339 
                               0.00225951232921251 -90.5839098485919 0.0040234145622914 -78.5963511206025 0.00784395181485182 -79.4620824960425 0.0320462314615057 -80.175640513464 
                               0.215385361712604 -46.5112506061188 0.907306434688598 44.9120373147622 0.219137841438104 -47.0804288116761 
                               0.0014122613090356 -103.747790643679 0.00225836056051591 -90.7500258820952 0.0041302366917739 -78.1328708359869 0.00797542239331287 -78.2053953146111 
                               0.0326510163890774 -80.2740125493339 0.219137841438104 -47.080428811676 0.925723035623255 42.1179529456034 
! Gamma         0                0.94313025987816 0                0.943130259877093 0                0.94313025987787 0                0.943130259877159 0                0.943130259877034 0                0.943130259877955 0                0.943130259878653 
! Port Impedance         8.59756451976694 0                8.60015731116599 0                8.59817303714    0                8.59771214396912 0                8.59769279273547 0                8.5981112800159  0                8.59840604151985 0                
0.0451                         0.925753908186866 42.0318252815321 0.218828864917344 -47.1621444785801 0.0326222718079463 -80.3715286835044 0.00797037926082347 -78.103321914043 
                               0.00413079437983555 -78.1516118720772 0.0022594730381156 -90.7423328465635 0.00140845062960758 -103.969814891492 
                               0.218828864917344 -47.16214447858  0.907485034004256 44.8181599836584 0.215135377382546 -46.5894298135713 0.032010061732359 -80.2711893096615 
                               0.00782622414894623 -79.4442989286797 0.00401963443649572 -78.7616012131513 0.00225851137600969 -90.8973642022748 
                               0.0326222718079464 -80.3715286835045 0.215135377382547 -46.5894298135711 0.907855700977806 44.824562024293  0.215125818953459 -46.5696284572231 
                               0.0319940887115123 -80.2870695965028 0.00782677885828156 -79.4770052557926 0.00412548369831743 -78.3076423024126 
                               0.00797037926082348 -78.1033219140432 0.0320100617323591 -80.2711893096615 0.215125818953459 -46.5696284572231 0.907868153320848 44.8226415762537 
                               0.215116661695727 -46.5644091456992 0.0320002566928098 -80.2746312036329 0.00795945322675983 -78.2189413406263 
                               0.00413079437983555 -78.1516118720772 0.00782622414894627 -79.4442989286798 0.0319940887115123 -80.287069596503 0.215116661695725 -46.5644091456995 
                               0.907820828512075 44.8216754711534 0.215098502866438 -46.5863371838901 0.0326012887407245 -80.3824260752239 
                               0.0022594730381156 -90.742332846564 0.00401963443649572 -78.7616012131513 0.00782677885828158 -79.4770052557926 0.0320002566928098 -80.2746312036328 
                               0.21509850286644 -46.5863371838894 0.907458753433387 44.8217743119043 0.218832762266942 -47.1544422107295 
                               0.00140845062960757 -103.969814891492 0.00225851137600968 -90.8973642022743 0.00412548369831743 -78.3076423024126 0.00795945322675981 -78.2189413406263 
                               0.0326012887407245 -80.3824260752238 0.21883276226694 -47.1544422107304 0.925792300732433 42.0320040453996 
! Gamma         0                0.945226104900114 0                0.945226104899044 0                0.945226104899827 0                0.945226104899108 0                0.945226104898976 0                0.945226104899905 0                0.945226104900604 
! Port Impedance         8.5975645197672  -0               8.60015731116602 -0               8.59817303714036 -0               8.59771214396959 -0               8.5976927927357  -0               8.59811128001587 0                8.59840604151984 -0               
0.0452                         0.925823762450841 41.9461367951667 0.218528459784928 -47.2362536721213 0.0325722815670314 -80.4807194217614 0.00795486002530897 -78.1145569674144 
                               0.00412608707921571 -78.3269882944422 0.00225934639892196 -90.8997783019655 0.00140467466640435 -104.189304309634 
                               0.218528459784928 -47.2362536721211 0.907637310432783 44.728215196937  0.214851484998481 -46.6640468637014 0.0319642381622621 -80.3708126395578 
                               0.00780933040020855 -79.4566398283705 0.00401582692975204 -78.9268595647609 0.00225854176450176 -91.0438664258198 
                               0.0325722815670315 -80.4807194217616 0.214851484998482 -46.6640468637011 0.908008634069814 44.73485520228   0.214843931934449 -46.6439350267228 
                               0.0319469376587422 -80.3860924301158 0.00780989138996853 -79.489687109098 0.00412068778371006 -78.4821351658237 
                               0.007954860025309 -78.1145569674146 0.0319642381622621 -80.3708126395578 0.214843931934449 -46.6439350267228 0.908019899764186 44.7328870748332 
                               0.214835669177692 -46.6386995052501 0.0319541700979615 -80.3740716176495 0.0079438850176702 -78.2306884420048 
                               0.00412608707921571 -78.3269882944422 0.00780933040020862 -79.4566398283707 0.0319469376587422 -80.386092430116 0.214835669177689 -46.6386995052506 
                               0.907973677410403 44.7319866513968 0.214814180948228 -46.661061897462 0.0325513100805682 -80.4912055719086 
                               0.00225934639892197 -90.8997783019665 0.00401582692975204 -78.9268595647609 0.00780989138996856 -79.489687109098 0.0319541700979615 -80.3740716176493 
                               0.214814180948232 -46.6610618974607 0.907611307258598 44.7318112899049 0.218532528682761 -47.2281205428667 
                               0.00140467466640433 -104.189304309635 0.00225854176450175 -91.0438664258188 0.00412068778371006 -78.4821351658237 0.00794388501767016 -78.2306884420048 
                               0.0325513100805682 -80.4912055719085 0.218532528682756 -47.2281205428684 0.925862762864426 41.9463433018072 
! Gamma         0                0.947321949922069 0                0.947321949920995 0                0.947321949921785 0                0.947321949921057 0                0.947321949920918 0                0.947321949921856 0                0.947321949922554 
! Port Impedance         8.59756451976748 -0               8.60015731116605 -0               8.59817303714072 -0               8.59771214397012 -0               8.59769279273593 -0               8.59811128001584 0                8.59840604151984 -0               
0.0453                         0.925894809009156 41.860735196232  0.218232439158437 -47.3100290432754 0.0325220288567213 -80.5902518010994 0.00793977155030331 -78.1241240901783 
                               0.00412133583416355 -78.5020789503905 0.00225913086558044 -91.0563320201136 0.00140093437506892 -104.406314606636 
                               0.218232439158437 -47.3100290432753 0.907789827452867 44.6385677995311 0.214570058508713 -46.7383535341729 0.0319182831963763 -80.4708889676912 
                               0.00779273913742224 -79.4667287823598 0.00401199109428137 -79.0921279186438 0.00225845123145063 -91.1896804974608 
                               0.0325220288567215 -80.5902518010995 0.214570058508714 -46.7383535341725 0.908161879278665 44.6454386060662 0.214564363754634 -46.7179762929726 
                               0.0318996748676334 -80.4854798196315 0.00779330310582834 -79.5001755637459 0.00411584834458732 -78.6563355293204 
                               0.00793977155030334 -78.1241240901787 0.0319182831963764 -80.4708889676911 0.214564363754634 -46.7179762929726 0.908171987128808 44.6434243662134 
                               0.214556921880567 -46.7127370525897 0.0319079597595217 -80.473955040734 0.00792872845602498 -78.240752926044 
                               0.00412133583416356 -78.5020789503906 0.00779273913742233 -79.4667287823601 0.0318996748676335 -80.4854798196318 0.214556921880564 -46.7127370525904 
                               0.90812684095778 44.6425878648603 0.214532323453705 -46.7354548905429 0.0325010691819953 -80.6003326270411 
                               0.00225913086558046 -91.0563320201151 0.00401199109428137 -79.0921279186437 0.00779330310582839 -79.5001755637459 0.0319079597595216 -80.4739550407337 
                               0.214532323453711 -46.7354548905411 0.907764091143244 44.6421463973351 0.218236825606307 -47.3015340007673 
                               0.00140093437506889 -104.406314606636 0.00225845123145061 -91.1896804974595 0.00411584834458733 -78.6563355293204 0.00792872845602493 -78.2407529260441 
                               0.0325010691819954 -80.600332627041 0.218236825606299 -47.3015340007695 0.925934404555791 41.860968808767  
! Gamma         0                0.949417794944023 0                0.949417794942946 0                0.949417794943742 0                0.949417794943006 0                0.949417794942859 0                0.949417794943807 0                0.949417794944506 
! Port Impedance         8.59756451976777 -0               8.60015731116608 -0               8.59817303714108 -0               8.59771214397074 -0               8.59769279273615 -0               8.59811128001581 0                8.59840604151984 -0               
0.0454                         0.925967030267223 41.7756185844335 0.217940540698856 -47.3835351795002 0.0324715029794554 -80.7001064611315 0.00792512328591791 -78.1321583317443 
                               0.00411654004960251 -78.6768691595304 0.00225882514243216 -91.2120825258018 0.00139723064812615 -104.620902481592 
                               0.217940540698856 -47.3835351794999 0.907942579874377 44.5492159598244 0.214291020142764 -46.8123762908157 0.0318721848502762 -80.5714101565157 
                               0.00777646454978157 -79.4746215378993 0.00400812592652334 -79.2574077057792 0.00225823975481592 -91.3349533762605 
                               0.0324715029794557 -80.7001064611317 0.214291020142766 -46.8123762908152 0.908315429929773 44.5563104520371 0.21428704069789 -46.7917733951215 
                               0.0318522900020478 -80.5852243369217 0.00777702750275783 -79.5085257380558 0.00411096477769291 -78.8302286125164 
                               0.00792512328591795 -78.1321583317448 0.0318721848502762 -80.5714101565156 0.21428704069789 -46.7917733951216 0.908324408443084 44.5542516497129 
                               0.214280349229738 -46.7865412170532 0.0318616138287769 -80.57427386241  0.00791399325194829 -78.2492580804406 
                               0.00411654004960251 -78.6768691595306 0.00777646454978169 -79.4746215378998 0.0318522900020479 -80.5852243369221 0.214280349229734 -46.7865412170541 
                               0.908280312458316 44.5534773283132 0.214252856973124 -46.8095440507157 0.0324505552428512 -80.7097877816465 
                               0.00225882514243218 -91.2120825258037 0.00400812592652334 -79.2574077057792 0.0077770275027579 -79.5085257380558 0.0318616138287768 -80.5742738624097 
                               0.214252856973132 -46.8095440507135 0.907917100073821 44.5527777953749 0.217945352493636 -47.3747418103617 
                               0.00139723064812612 -104.620902481593 0.0022582397548159 -91.3349533762587 0.00411096477769292 -78.8302286125165 0.00791399325194823 -78.2492580804407 
                               0.0324505552428513 -80.7097877816464 0.217945352493626 -47.3747418103643 0.926007208458685 41.7758786723811 
! Gamma         0                0.951513639965978 0                0.951513639964896 0                0.9515136399657  0                0.951513639964955 0                0.9515136399648  0                0.951513639965757 0                0.951513639966457 
! Port Impedance         8.59756451976809 -0               8.60015731116611 -0               8.59817303714144 -0               8.59771214397145 -0               8.59769279273638 -0               8.59811128001578 0                8.59840604151983 -0               
0.0455                         0.92604040874796 41.6907850715737 0.217652511186854 -47.4568272800903 0.0324206936895116 -80.8102630257182 0.00791092348352078 -78.1388011376471 
                               0.00411169913366279 -78.8513433251382 0.00225842819332537 -91.3671205459431 0.00139356431562134 -104.83312553802 
                               0.217652511186854 -47.4568272800901 0.908095562515474 44.4601578587546 0.214014292367207 -46.8861395093441 0.0318259312461373 -80.6723671426431 
                               0.00776052055877816 -79.4803820405603 0.00400423036435451 -79.4226999913951 0.0022579077733061 -91.4798299891705 
                               0.0324206936895119 -80.8102630257185 0.214014292367209 -46.8861395093435 0.908469279365424 44.4674689693868 0.214011890016556 -46.8653458377216 
                               0.0318047728197148 -80.6853177694882 0.00776107780538668 -79.5148004699284 0.00410603648228546 -79.0037987009933 
                               0.00791092348352083 -78.1388011376477 0.0318259312461374 -80.6723671426431 0.214011890016555 -46.8653458377216 0.908477156753214 44.4653671373678 
                               0.214005881701502 -46.8601299507407 0.0318151205484946 -80.6750195621836 0.00789968806366019 -78.2563336723193 
                               0.0041116991336628 -78.8513433251384 0.0077605205587783 -79.4803820405609 0.0318047728197149 -80.6853177694888 0.214005881701497 -46.8601299507417 
                               0.908434085233134 44.4646532713363 0.213975707697366 -46.8833551359135 0.0323997579169797 -80.8195505505434 
                               0.00225842819332541 -91.3671205459454 0.00400423036435451 -79.4226999913951 0.00776107780538677 -79.5148004699284 0.0318151205484946 -80.6750195621832 
                               0.213975707697375 -46.883355135911 0.908070329044214 44.4637036577204 0.217657824548661 -47.4477937154827 
                               0.0013935643156213 -104.833125538021 0.00225790777330606 -91.4798299891684 0.00410603648228547 -79.0037987009933 0.00789968806366011 -78.2563336723194 
                               0.0323997579169799 -80.8195505505433 0.217657824548649 -47.4477937154857 0.926081157339687 41.6910710108418 
! Gamma         0                0.953609484987933 0                0.953609484986847 0                0.953609484987658 0                0.953609484986904 0                0.95360948498674 0                0.953609484987708 0                0.953609484988407 
! Port Impedance         8.59756451976843 -0               8.60015731116615 -0               8.5981730371418  -0               8.5977121439723  -0               8.59769279273661 -0               8.59811128001575 0                8.59840604151982 -0               
0.0456                         0.926114927090569 41.6062327814826 0.217368108050067 -47.5299523094813 0.0323695912235195 -80.9207001267902 0.00789717913188277 -78.1441996623522 
                               0.00410681250039754 -79.0254848839923 0.00225793924846911 -91.5215384715071 0.00138993614583407 -105.043042198117 
                               0.217368108050067 -47.5299523094811 0.908248770202508 44.371391689722  0.213739798257635 -46.9596656069306 0.0317795106368034 -80.7737499258555 
                               0.00774492073678741 -79.484082511706 0.00400030328425863 -79.5880054151013 0.00225745616998011 -91.6244522417401 
                               0.0323695912235199 -80.9207001267906 0.213739798257637 -46.9596656069299 0.908623420944635 44.378912400025  0.213738840138848 -46.938711595773 
                               0.0317571131918014 -80.7857511107727 0.00774546689064286 -79.5190703746254 0.00410106286285992 -79.1770290941176 
                               0.00789717913188282 -78.144199662353 0.0317795106368035 -80.7737499258555 0.213738840138847 -46.938711595773 0.908630225123073 44.3767690538407 
                               0.213733450991513 -46.9335198225953 0.0317684682763688 -80.7761826971412 0.00788582043178051 -78.2621153808509 
                               0.00410681250039755 -79.0254848839925 0.00774492073678757 -79.4840825117068 0.0317571131918015 -80.7857511107733 0.213733450991507 -46.9335198225964 
                               0.90858815262022 44.376113936229  0.21370080185417 -46.9569118991506 0.032348667345105 -80.9295994465922 
                               0.00225793924846915 -91.5215384715096 0.00400030328425863 -79.5880054151012 0.00774546689064295 -79.5190703746255 0.0317684682763687 -80.7761826971406 
                               0.21370080185418 -46.9569118991478 0.908223773055597 44.3749221704927 0.217373973313469 -47.5207312884032 
                               0.00138993614583402 -105.043042198119 0.00225745616998006 -91.6244522417377 0.00410106286285995 -79.1770290941176 0.00788582043178042 -78.262115380851 
                               0.0323486673451051 -80.9295994465921 0.217373973313455 -47.5207312884065 0.926156234078621 41.6065439543614 
! Gamma         0                0.955705330009888 0                0.955705330008797 0                0.955705330009617 0                0.955705330008853 0                0.955705330008679 0                0.955705330009659 0                0.955705330010358 
! Port Impedance         8.59756451976881 -0               8.60015731116619 -0               8.59817303714215 -0               8.59771214397332 -0               8.59769279273684 -0               8.59811128001572 0                8.59840604151982 -0               
0.0457                         0.926190568049353 41.5219598499489 0.217087100330568 -47.6029500363191 0.0323181863301686 -81.0313954319419 0.00788389590241747 -78.1485060202478 
                               0.00410187957283339 -79.1992762548945 0.00225735780893391 -91.6754298052431 0.00138634684606309 -105.250711617585 
                               0.217087100330568 -47.6029500363188 0.908402197769921 44.2829156584983 0.213467461812181 -47.0329751692792 0.0317329114304305 -80.8755475602815 
                               0.00772967822370317 -79.4858034658714 0.00399634349846813 -79.7533241240188 0.00225688625164129 -91.7689580982458 
                               0.0323181863301689 -81.0313954319423 0.213467461812184 -47.0329751692785 0.90877784804301 44.2906389984844 0.213467820840314 -47.0118872150246 
                               0.0317093011229696 -80.8865145521417 0.00773020721074673 -79.5214138472279 0.00409604333221207 -79.349902051373 
                               0.00788389590241752 -78.1485060202487 0.0317329114304306 -80.8755475602814 0.213467820840314 -47.0118872150247 0.908783606634051 44.2884556363286 
                               0.213462990153348 -47.0067261081019 0.0317216455090923 -80.8777528916045 0.0078723967208768 -78.2667441680237 
                               0.0041018795728334 -79.1992762548947 0.00772967822370335 -79.4858034658723 0.0317093011229697 -80.8865145521424 0.213462990153342 -47.0067261081031 
                               0.908742507974287 44.2878575779166 0.213428066081472 -47.0302362104861 0.0322972741848884 -81.0399120087731 
                               0.00225735780893396 -91.6754298052459 0.00399634349846813 -79.7533241240188 0.00773020721074684 -79.521413847228 0.0317216455090923 -80.8777528916038 
                               0.213428066081484 -47.030236210483 0.908377427116338 44.2864315321464 0.217093546795195 -47.5935890793696 
                               0.00138634684606304 -105.250711617586 0.00225688625164124 -91.7689580982432 0.0040960433322121 -79.349902051373 0.00787239672087669 -78.2667441680238 
                               0.0322972741848886 -81.0399120087729 0.21709354679518 -47.593589079373 0.926232421667409 41.5222956451023 
! Gamma         0                0.957801175031843 0                0.957801175030748 0                0.957801175031575 0                0.957801175030802 0                0.957801175030616 0                0.957801175031609 0                0.957801175032309 
! Port Impedance         8.59756451976921 -0               8.60015731116622 -0               8.59817303714251 -0               8.59771214397456 -0               8.59769279273707 -0               8.59811128001569 0                8.59840604151982 -0               
0.0458                         0.926267314492533 41.4379644246515 0.216809269217112 -47.6758539623293 0.032266470298947 -81.1423256757812 0.00787107810430848 -78.1518764825239 
                               0.00409689978638393 -79.3726987860835 0.00225668364874709 -91.8288886019037 0.00138279706347762 -105.45619360114 
                               0.216809269217112 -47.675853962329 0.908555840060142 44.1947279831366 0.213197208213139 -47.1060870726654 0.0316861222156358 -80.9777481478656 
                               0.00771480564236903 -79.4856336638711 0.00399234975210076 -79.9186556981983 0.00225619972452485 -91.9134807415444 
                               0.0322664702989474 -81.1423256757817 0.213197208213142 -47.1060870726646 0.908932554052604 44.2026470318294 0.213198763383545 -47.084887907414 
                               0.0316613267718664 -80.987597476655 0.00771531071531473 -79.5219170062048 0.00409097731487602 -79.5223987374038 
                               0.00787107810430853 -78.1518764825249 0.0316861222156359 -80.9777481478655 0.213198763383545 -47.084887907414 0.908937294384893 44.200425134473  
                               0.213194433710699 -47.0797628745529 0.031674640906989 -80.979718828976 0.00785942206907015 -78.2703655932252 
                               0.00409689978638394 -79.3726987860838 0.00771480564236923 -79.4856336638722 0.0316613267718665 -80.9875974766558 0.213194433710692 -47.0797628745542 
                               0.90889714466663 44.1998824638587 0.213157427744374 -47.1033481754284 0.0322455696399944 -81.1504648340767 
                               0.00225668364874715 -91.8288886019069 0.00399234975210075 -79.9186556981982 0.00771531071531486 -79.5219170062049 0.0316746409069889 -80.9797188289753 
                               0.213157427744387 -47.1033481754251 0.908531286241906 44.1982299533801 0.216816309254809 -47.6663956197548 
                               0.00138279706347757 -105.456193601142 0.00225619972452478 -91.9134807415416 0.00409097731487605 -79.5223987374038 0.00785942206907003 -78.2703655932253 
                               0.0322455696399946 -81.1504648340765 0.216816309254792 -47.6663956197583 0.926309703208915 41.4383242371075 
! Gamma         0                0.959897020053798 0                0.959897020052698 0                0.959897020053533 0                0.959897020052751 0                0.959897020052554 0                0.95989702005356 0                0.95989702005426 
! Port Impedance         8.59756451976965 -0               8.60015731116627 -0               8.59817303714287 -0               8.5977121439761  -0               8.59769279273731 -0               8.59811128001566 0                8.59840604151981 -0               
0.0459                         0.926345149401082 41.354244665092  0.216534408243925 -47.7486921473943 0.0322144349877493 -81.253466694994 0.00785872865018284 -78.1544706286694 
                               0.00409187259265551 -79.5457327017921 0.00225591681456968 -91.9820089077729 0.00137928738603089 -105.659548518873 
                               0.216534408243925 -47.748692147394 0.908709691923498 44.1068268938816 0.212928964042693 -47.1790186005707 0.0316391317870687 -81.0803388342559 
                               0.00770031501362527 -79.4836699980962 0.00398832072032119 -80.0839990675615 0.00225539866682739 -92.0581478208354 
                               0.0322144349877497 -81.2534666949946 0.212928964042696 -47.1790186005699 0.909087532381784 44.1149347795647 0.212931600629933 -47.157727641606 
                               0.0316131804719871 -81.0889884547163 0.00770078877331226 -79.5206735751069 0.00408586425096626 -79.6944991660168 
                               0.00785872865018289 -78.1544706286706 0.0316391317870688 -81.0803388342559 0.212931600629933 -47.1577276416061 0.909091281491548 44.1126758102697 
                               0.212927717746331 -47.1526430618862 0.0316274433191275 -81.082068245904 0.0078469003464158 -78.2731290783141 
                               0.00409187259265553 -79.5457327017923 0.00770031501362547 -79.4836699980974 0.0316131804719872 -81.0889884547173 0.212927717746324 -47.1526430618875 
                               0.90905205608499 44.1121868739584 0.212888815201832 -47.1762662491789 0.0321935454879987 -81.2612336131641 
                               0.00225591681456975 -91.9820089077762 0.00398832072032119 -80.0839990675614 0.0077007887733124 -79.520673575107 0.0316274433191275 -81.0820682459032 
                               0.212888815201846 -47.1762662491755 0.90868534545477 44.1103156570469 0.216542040755761 -47.7391742938237 
                               0.00137928738603083 -105.659548518875 0.00225539866682731 -92.0581478208324 0.00408586425096629 -79.6944991660169 0.00784690034641566 -78.2731290783141 
                               0.0321935454879989 -81.2612336131639 0.216542040755744 -47.7391742938273 0.926388061915824 41.3546278962321 
! Gamma         0                0.961992865075753 0                0.961992865074648 0                0.961992865075492 0                0.961992865074699 0                0.961992865074489 0                0.961992865075511 0                0.961992865076211 
! Port Impedance         8.59756451977014 -0               8.60015731116631 -0               8.59817303714322 -0               8.59771214397809 -0               8.59769279273754 -0               8.59811128001563 0                8.59840604151981 -0               
0.046                          0.926424055867568 41.2707987425267 0.216262323238325 -47.8214879385973 0.0321620728491914 -81.3647934670602 0.00784684903283957 -78.1564504621862 
                               0.00408679746367624 -79.718357048257 0.00225505762298247 -92.1348842062493 0.00137581834343158 -105.860837223554 
                               0.216262323238325 -47.8214879385969 0.908863748218112 44.0192106330808 0.212662657458247 -47.2517855546825 0.0315919291713179 -81.1833058072253 
                               0.00768621767185179 -79.4800173072252 0.00398425500556389 -80.249352419548 0.00225448549865666 -92.2030807933462 
                               0.0321620728491918 -81.3647934670608 0.212662657458251 -47.2517855546817 0.909242776455097 44.0275005335457 0.21266626712694 -47.2304192286511 
                               0.0315648527528477 -81.1906752417058 0.00768665209564617 -79.5177847000896 0.00408070360045682 -79.8661821434466 