! TOUCHSTONE file generated by CST MICROWAVE STUDIO
! Date and time: Mon Jan 20 14:13:50 2020
! Project name: 4pj-L4PJ=403mm-lossy.cst
! Parameters = {rblend_outter_port=40; H_4PJ=915; H_VCW=515; H_septa=30; L_4PJ=355.63; L_4PJ_MV=405.26; L_4PJ_port=317.5; L_fdr=200; L_front_gap=32.13; L_rear_gap=17.5; R_4PJ=117.5; R_body=25; W_4PJ=315; W_VCW=315; W_gap=25; rblend_outer1=15; xH_fdr_outer=285; xR_VCW_inner=132.5; xR_fdr_inner=125; xW_4PJ_inner=265; xW_inner_split=15; xW_outer_split=80}
! Header version: 2018
! Port assignment regex: !\s*Touchstone port\s*([0-9]+)\s*=\s*(CST MWS port|CST DS port)\s*([0-9]+|Zmin|Zmax)\s*\(\"(.*)\"\)(\s*mode\s*([0-9]+))?.*
! Touchstone port assignment:
! Touchstone port 1 = CST MWS port 1 ("")
! Touchstone port 2 = CST MWS port 2 ("")
! Touchstone port 3 = CST MWS port 3 ("")
! Touchstone port 4 = CST MWS port 4 ("")
# MHz S MA R 50
35                      0.712492         -166.02         0.390181        -39.3991         0.419356        -44.0389         0.405284        -41.0618
                        0.390181        -39.3991         0.730557        -163.614         0.390181        -39.3991          0.40225        -41.2875
                        0.419356        -44.0389         0.390181        -39.3991         0.712492         -166.02         0.405284        -41.0618
                        0.405284        -41.0618         0.402249        -41.2876         0.405284        -41.0618         0.713922        -164.905
35.025                  0.712655        -166.024         0.390067        -39.4204         0.419278        -44.0637         0.405188        -41.0843
                        0.390067        -39.4204         0.730733        -163.617         0.390067        -39.4204          0.40215        -41.3102
                        0.419278        -44.0637         0.390067        -39.4204         0.712655        -166.024         0.405188        -41.0843
                        0.405188        -41.0844          0.40215        -41.3102         0.405188        -41.0844         0.714087        -164.909
35.05                   0.712817        -166.029         0.389953        -39.4417           0.4192        -44.0885         0.405093        -41.1068
                        0.389953        -39.4417         0.730909        -163.621         0.389953        -39.4416         0.402051        -41.3329
                          0.4192        -44.0885         0.389953        -39.4416         0.712817        -166.029         0.405093        -41.1068
                        0.405093        -41.1069         0.402051        -41.3329         0.405093        -41.1069         0.714252        -164.912
35.075                  0.712979        -166.033          0.38984        -39.4629         0.419123        -44.1133         0.404997        -41.1293
                         0.38984        -39.4629         0.731085        -163.624          0.38984        -39.4629         0.401951        -41.3556
                        0.419123        -44.1133          0.38984        -39.4629         0.712979        -166.033         0.404997        -41.1293
                        0.404997        -41.1293         0.401951        -41.3556         0.404997        -41.1293         0.714416        -164.916
35.1                    0.713141        -166.038         0.389726        -39.4842         0.419045         -44.138         0.404901        -41.1518
                        0.389726        -39.4842         0.731261        -163.627         0.389726        -39.4842         0.401852        -41.3782
                        0.419045         -44.138         0.389726        -39.4841         0.713141        -166.038         0.404901        -41.1518
                        0.404901        -41.1518         0.401852        -41.3782         0.404901        -41.1518         0.714581        -164.919
35.125                  0.713303        -166.042         0.389612        -39.5054         0.418967        -44.1628         0.404805        -41.1743
                        0.389613        -39.5054         0.731437        -163.631         0.389613        -39.5054         0.401752        -41.4009
                        0.418967        -44.1628         0.389612        -39.5054         0.713303        -166.042         0.404805        -41.1743
                        0.404805        -41.1743         0.401752        -41.4009         0.404805        -41.1743         0.714745        -164.923
35.15                   0.713465        -166.047         0.389499        -39.5266          0.41889        -44.1875          0.40471        -41.1967
                        0.389499        -39.5266         0.731612        -163.634         0.389499        -39.5266         0.401653        -41.4235
                         0.41889        -44.1875         0.389499        -39.5266         0.713465        -166.047          0.40471        -41.1967
                         0.40471        -41.1967         0.401653        -41.4235          0.40471        -41.1967          0.71491        -164.926
35.175                  0.713627        -166.051         0.389385        -39.5479         0.418812        -44.2122         0.404614        -41.2192
                        0.389385        -39.5479         0.731788        -163.638         0.389385        -39.5478         0.401554        -41.4461
                        0.418812        -44.2122         0.389385        -39.5478         0.713627        -166.051         0.404614        -41.2192
                        0.404614        -41.2192         0.401553        -41.4461         0.404614        -41.2192         0.715074         -164.93
35.2                    0.713789        -166.056         0.389272        -39.5691         0.418734        -44.2369         0.404518        -41.2416
                        0.389272        -39.5691         0.731963        -163.642         0.389272        -39.5691         0.401454        -41.4687
                        0.418734        -44.2369         0.389271         -39.569         0.713789        -166.056         0.404518        -41.2416
                        0.404518        -41.2416         0.401454        -41.4687         0.404518        -41.2416         0.715238        -164.933
35.225                   0.71395         -166.06         0.389158        -39.5903         0.418657        -44.2617         0.404422         -41.264
                        0.389158        -39.5903         0.732138        -163.645         0.389158        -39.5903         0.401355        -41.4913
                        0.418657        -44.2617         0.389158        -39.5902          0.71395         -166.06         0.404422         -41.264
                        0.404422        -41.2641         0.401355        -41.4913         0.404422        -41.2641         0.715402        -164.937
35.25                   0.714112        -166.065         0.389044        -39.6114         0.418579        -44.2864         0.404327        -41.2865
                        0.389045        -39.6115         0.732313        -163.649         0.389045        -39.6114         0.401256        -41.5139
                        0.418579        -44.2863         0.389044        -39.6114         0.714112        -166.065         0.404327        -41.2865
                        0.404327        -41.2865         0.401255        -41.5139         0.404327        -41.2865         0.715566        -164.941
35.275                  0.714273        -166.069         0.388931        -39.6326         0.418502         -44.311         0.404231        -41.3089
                        0.388931        -39.6326         0.732488        -163.652         0.388931        -39.6326         0.401156        -41.5365
                        0.418502         -44.311         0.388931        -39.6326         0.714273        -166.069         0.404231        -41.3089
                        0.404231        -41.3089         0.401156        -41.5365         0.404231        -41.3089          0.71573        -164.944
35.3                    0.714435        -166.074         0.388817        -39.6538         0.418424        -44.3357         0.404135        -41.3313
                        0.388818        -39.6538         0.732663        -163.656         0.388817        -39.6538         0.401057        -41.5591
                        0.418424        -44.3357         0.388817        -39.6538         0.714435        -166.074         0.404135        -41.3313
                        0.404135        -41.3313         0.401056        -41.5591         0.404135        -41.3313         0.715893        -164.948
35.325                  0.714596        -166.078         0.388704        -39.6749         0.418347        -44.3604          0.40404        -41.3537
                        0.388704         -39.675         0.732838        -163.659         0.388704         -39.675         0.400957        -41.5817
                        0.418347        -44.3604         0.388703        -39.6749         0.714596        -166.078          0.40404        -41.3537
                         0.40404        -41.3537         0.400957        -41.5816          0.40404        -41.3537         0.716057        -164.951
35.35                   0.714757        -166.083          0.38859        -39.6961         0.418269         -44.385         0.403944         -41.376
                         0.38859        -39.6961         0.733013        -163.663          0.38859        -39.6961         0.400858        -41.6042
                        0.418269         -44.385          0.38859        -39.6961         0.714757        -166.083         0.403944         -41.376
                        0.403944         -41.376         0.400858        -41.6042         0.403944         -41.376         0.716221        -164.955
35.375                  0.714918        -166.088         0.388476        -39.7172         0.418192        -44.4097         0.403848        -41.3984
                        0.388477        -39.7172         0.733188        -163.666         0.388477        -39.7172         0.400759        -41.6267
                        0.418192        -44.4097         0.388476        -39.7172         0.714918        -166.088         0.403848        -41.3984
                        0.403848        -41.3984         0.400758        -41.6267         0.403848        -41.3984         0.716384        -164.959
35.4                    0.715079        -166.092         0.388363        -39.7384         0.418114        -44.4343         0.403753        -41.4208
                        0.388363        -39.7384         0.733362         -163.67         0.388363        -39.7384          0.40066        -41.6493
                        0.418114        -44.4343         0.388363        -39.7383         0.715079        -166.092         0.403753        -41.4208
                        0.403753        -41.4208         0.400659        -41.6493         0.403753        -41.4208         0.716547        -164.962
35.425                   0.71524        -166.097         0.388249        -39.7595         0.418037         -44.459         0.403657        -41.4431
                         0.38825        -39.7595         0.733537        -163.674          0.38825        -39.7595          0.40056        -41.6718
                        0.418037         -44.459         0.388249        -39.7594          0.71524        -166.097         0.403657        -41.4431
                        0.403657        -41.4431          0.40056        -41.6718         0.403657        -41.4431         0.716711        -164.966
35.45                   0.715401        -166.101         0.388136        -39.7806         0.417959        -44.4836         0.403561        -41.4654
                        0.388136        -39.7806         0.733711        -163.677         0.388136        -39.7806         0.400461        -41.6943
                        0.417959        -44.4836         0.388136        -39.7806         0.715401        -166.101         0.403561        -41.4654
                        0.403561        -41.4654          0.40046        -41.6943         0.403561        -41.4654         0.716874         -164.97
35.475                  0.715562        -166.106         0.388022        -39.8017         0.417882        -44.5082         0.403466        -41.4878
                        0.388023        -39.8017         0.733885        -163.681         0.388023        -39.8017         0.400362        -41.7168
                        0.417882        -44.5082         0.388022        -39.8016         0.715562        -166.106         0.403466        -41.4878
                        0.403466        -41.4878         0.400361        -41.7168         0.403466        -41.4878         0.717037        -164.973
35.5                    0.715722        -166.111         0.387909        -39.8228         0.417805        -44.5328          0.40337        -41.5101
                        0.387909        -39.8228         0.734059        -163.684         0.387909        -39.8228         0.400262        -41.7393
                        0.417805        -44.5328         0.387908        -39.8227         0.715722        -166.111          0.40337        -41.5101
                         0.40337        -41.5101         0.400262        -41.7393          0.40337        -41.5101           0.7172        -164.977
35.525                  0.715883        -166.115         0.387795        -39.8438         0.417727        -44.5574         0.403275        -41.5324
                        0.387796        -39.8439         0.734233        -163.688         0.387796        -39.8438         0.400163        -41.7618
                        0.417727        -44.5574         0.387795        -39.8438         0.715883        -166.115         0.403274        -41.5324
                        0.403275        -41.5324         0.400162        -41.7618         0.403275        -41.5324         0.717363        -164.981
35.55                   0.716043         -166.12         0.387682        -39.8649          0.41765         -44.582         0.403179        -41.5547
                        0.387682        -39.8649         0.734407        -163.692         0.387682        -39.8649         0.400064        -41.7843
                         0.41765         -44.582         0.387681        -39.8649         0.716043         -166.12         0.403179        -41.5547
                        0.403179        -41.5547         0.400063        -41.7842         0.403179        -41.5547         0.717525        -164.984
35.575                  0.716203        -166.125         0.387568         -39.886         0.417573        -44.6065         0.403083         -41.577
                        0.387569         -39.886         0.734581        -163.695         0.387569         -39.886         0.399965        -41.8067
                        0.417573        -44.6065         0.387568        -39.8859         0.716204        -166.125         0.403083         -41.577
                        0.403083         -41.577         0.399964        -41.8067         0.403083         -41.577         0.717688        -164.988
35.6                    0.716364        -166.129         0.387455         -39.907         0.417495        -44.6311         0.402988        -41.5992
                        0.387455         -39.907         0.734755        -163.699         0.387455         -39.907         0.399865        -41.8292
                        0.417495        -44.6311         0.387454         -39.907         0.716364        -166.129         0.402988        -41.5992
                        0.402988        -41.5992         0.399865        -41.8291         0.402988        -41.5993         0.717851        -164.992
35.625                  0.716524        -166.134         0.387341         -39.928         0.417418        -44.6556         0.402892        -41.6215
                        0.387342        -39.9281         0.734928        -163.703         0.387342        -39.9281         0.399766        -41.8516
                        0.417418        -44.6556         0.387341         -39.928         0.716524        -166.134         0.402892        -41.6215
                        0.402892        -41.6215         0.399765        -41.8516         0.402892        -41.6215         0.718013        -164.995
35.65                   0.716684        -166.139         0.387227        -39.9491         0.417341        -44.6802         0.402797        -41.6438
                        0.387228        -39.9491         0.735102        -163.706         0.387228        -39.9491         0.399667        -41.8741
                        0.417341        -44.6802         0.387227         -39.949         0.716684        -166.139         0.402797        -41.6438
                        0.402797        -41.6438         0.399666         -41.874         0.402797        -41.6438         0.718176        -164.999
35.675                  0.716844        -166.143         0.387114        -39.9701         0.417264        -44.7047         0.402701         -41.666
                        0.387115        -39.9701         0.735275         -163.71         0.387115        -39.9701         0.399568        -41.8965
                        0.417264        -44.7047         0.387114          -39.97         0.716844        -166.143         0.402701         -41.666
                        0.402701         -41.666         0.399567        -41.8964         0.402701         -41.666         0.718338        -165.003
35.7                    0.717003        -166.148            0.387        -39.9911         0.417187        -44.7292         0.402606        -41.6882
                        0.387001        -39.9911         0.735449        -163.714         0.387001        -39.9911         0.399469        -41.9189
                        0.417186        -44.7292            0.387        -39.9911         0.717004        -166.148         0.402606        -41.6882
                        0.402606        -41.6882         0.399468        -41.9188         0.402606        -41.6883           0.7185        -165.007
35.725                  0.717163        -166.153         0.386887        -40.0121         0.417109        -44.7538          0.40251        -41.7105
                        0.386888        -40.0121         0.735622        -163.717         0.386888        -40.0121         0.399369        -41.9413
                        0.417109        -44.7537         0.386887         -40.012         0.717163        -166.153          0.40251        -41.7105
                         0.40251        -41.7105         0.399368        -41.9412          0.40251        -41.7105         0.718662         -165.01
35.75                   0.717323        -166.158         0.386774        -40.0331         0.417032        -44.7783         0.402415        -41.7327
                        0.386774        -40.0331         0.735795        -163.721         0.386774        -40.0331          0.39927        -41.9637
                        0.417032        -44.7782         0.386773         -40.033         0.717323        -166.157         0.402415        -41.7327
                        0.402415        -41.7327         0.399269        -41.9636         0.402415        -41.7327         0.718824        -165.014
35.775                  0.717482        -166.162          0.38666         -40.054         0.416955        -44.8027         0.402319        -41.7549
                        0.386661        -40.0541         0.735968        -163.725         0.386661        -40.0541         0.399171        -41.9861
                        0.416955        -44.8027          0.38666         -40.054         0.717483        -166.162         0.402319        -41.7549
                        0.402319        -41.7549          0.39917         -41.986         0.402319        -41.7549         0.718986        -165.018
35.8                    0.717642        -166.167         0.386547         -40.075         0.416878        -44.8272         0.402224        -41.7771
                        0.386548         -40.075         0.736141        -163.728         0.386547         -40.075         0.399072        -42.0084
                        0.416878        -44.8272         0.386546         -40.075         0.717642        -166.167         0.402224        -41.7771
                        0.402224        -41.7771         0.399071        -42.0084         0.402224        -41.7771         0.719148        -165.022
35.825                  0.717801        -166.172         0.386433        -40.0959         0.416801        -44.8517         0.402128        -41.7993
                        0.386434         -40.096         0.736314        -163.732         0.386434         -40.096         0.398973        -42.0308
                        0.416801        -44.8517         0.386433        -40.0959         0.717801        -166.172         0.402128        -41.7993
                        0.402128        -41.7993         0.398972        -42.0307         0.402128        -41.7993          0.71931        -165.025
35.85                    0.71796        -166.176          0.38632        -40.1169         0.416724        -44.8762         0.402033        -41.8214
                        0.386321        -40.1169         0.736487        -163.736         0.386321        -40.1169         0.398874        -42.0531
                        0.416724        -44.8762         0.386319        -40.1169         0.717961        -166.176         0.402033        -41.8214
                        0.402033        -41.8214         0.398873        -42.0531         0.402033        -41.8215         0.719472        -165.029
35.875                   0.71812        -166.181         0.386206        -40.1378         0.416647        -44.9006         0.401937        -41.8436
                        0.386207        -40.1379         0.736659         -163.74         0.386207        -40.1379         0.398774        -42.0755
                        0.416647        -44.9006         0.386206        -40.1378          0.71812        -166.181         0.401937        -41.8436
                        0.401937        -41.8436         0.398773        -42.0754         0.401937        -41.8436         0.719633        -165.033
35.9                    0.718279        -166.186         0.386093        -40.1587          0.41657        -44.9251         0.401842        -41.8658
                        0.386094        -40.1588         0.736832        -163.743         0.386094        -40.1588         0.398675        -42.0978
                        0.416569        -44.9251         0.386093        -40.1587         0.718279        -166.186         0.401842        -41.8658
                        0.401842        -41.8658         0.398674        -42.0978         0.401842        -41.8658         0.719795        -165.037
35.925                  0.718438        -166.191         0.385979        -40.1797         0.416493        -44.9495         0.401747        -41.8879
                         0.38598        -40.1797         0.737004        -163.747          0.38598        -40.1797         0.398576        -42.1201
                        0.416492        -44.9495         0.385979        -40.1796         0.718438        -166.191         0.401746        -41.8879
                        0.401746        -41.8879         0.398575        -42.1201         0.401746        -41.8879         0.719956        -165.041
35.95                   0.718596        -166.196         0.385866        -40.2006         0.416416        -44.9739         0.401651          -41.91
                        0.385867        -40.2006         0.737177        -163.751         0.385867        -40.2006         0.398477        -42.1425
                        0.416415        -44.9739         0.385866        -40.2005         0.718597        -166.196         0.401651          -41.91
                        0.401651          -41.91         0.398476        -42.1424         0.401651        -41.9101         0.720117        -165.044
35.975                  0.718755          -166.2         0.385753        -40.2215         0.416339        -44.9983         0.401556        -41.9322
                        0.385754        -40.2215         0.737349        -163.755         0.385754        -40.2215         0.398378        -42.1648
                        0.416338        -44.9983         0.385752        -40.2214         0.718755          -166.2         0.401556        -41.9322
                        0.401556        -41.9322         0.398377        -42.1647         0.401556        -41.9322         0.720279        -165.048
36                      0.718914        -166.205         0.385639        -40.2423         0.416262        -45.0227          0.40146        -41.9543
                         0.38564        -40.2424         0.737521        -163.758          0.38564        -40.2424         0.398279         -42.187
                        0.416262        -45.0227         0.385639        -40.2423         0.718914        -166.205          0.40146        -41.9543
                         0.40146        -41.9543         0.398278         -42.187          0.40146        -41.9543          0.72044        -165.052
36.025                  0.719072         -166.21         0.385526        -40.2632         0.416185        -45.0471         0.401365        -41.9764
                        0.385527        -40.2632         0.737693        -163.762         0.385527        -40.2632          0.39818        -42.2093
                        0.416185        -45.0471         0.385526        -40.2632         0.719073         -166.21         0.401365        -41.9764
                        0.401365        -41.9764         0.398179        -42.2093         0.401365        -41.9764         0.720601        -165.056
36.05                   0.719231        -166.215         0.385412        -40.2841         0.416108        -45.0715          0.40127        -41.9985
                        0.385413        -40.2841         0.737865        -163.766         0.385413        -40.2841         0.398081        -42.2316
                        0.416108        -45.0715         0.385412         -40.284         0.719231        -166.215          0.40127        -41.9985
                         0.40127        -41.9985          0.39808        -42.2315          0.40127        -41.9985         0.720762         -165.06
36.075                  0.719389         -166.22         0.385299        -40.3049         0.416031        -45.0959         0.401174        -42.0206
                          0.3853         -40.305         0.738037         -163.77           0.3853         -40.305         0.397982        -42.2539
                        0.416031        -45.0959         0.385299        -40.3049          0.71939         -166.22         0.401174        -42.0206
                        0.401174        -42.0206         0.397981        -42.2538         0.401174        -42.0206         0.720923        -165.064
36.1                    0.719548        -166.224         0.385186        -40.3258         0.415954        -45.1203         0.401079        -42.0426
                        0.385187        -40.3258         0.738208        -163.774         0.385187        -40.3258         0.397883        -42.2761
                        0.415954        -45.1203         0.385185        -40.3257         0.719548        -166.224         0.401079        -42.0426
                        0.401079        -42.0426         0.397882         -42.276         0.401079        -42.0427         0.721083        -165.068
36.125                  0.719706        -166.229         0.385072        -40.3466         0.415877        -45.1446         0.400984        -42.0647
                        0.385073        -40.3466          0.73838        -163.777         0.385073        -40.3466         0.397784        -42.2984
                        0.415877        -45.1446         0.385072        -40.3466         0.719706        -166.229         0.400984        -42.0647
                        0.400984        -42.0647         0.397783        -42.2983         0.400984        -42.0647         0.721244        -165.071
36.15                   0.719864        -166.234         0.384959        -40.3674           0.4158         -45.169         0.400888        -42.0868
                         0.38496        -40.3675         0.738551        -163.781          0.38496        -40.3675         0.397685        -42.3206
                          0.4158         -45.169         0.384959        -40.3674         0.719864        -166.234         0.400888        -42.0867
                        0.400888        -42.0867         0.397683        -42.3205         0.400888        -42.0868         0.721404        -165.075
36.175                  0.720022        -166.239         0.384845        -40.3882         0.415724        -45.1933         0.400793        -42.1088
                        0.384847        -40.3883         0.738723        -163.785         0.384847        -40.3883         0.397586        -42.3428
                        0.415723        -45.1933         0.384845        -40.3882         0.720022        -166.239         0.400793        -42.1088
                        0.400793        -42.1088         0.397584        -42.3427         0.400793        -42.1088         0.721565        -165.079
36.2                     0.72018        -166.244         0.384732         -40.409         0.415647        -45.2176         0.400698        -42.1308
                        0.384733        -40.4091         0.738894        -163.789         0.384733        -40.4091         0.397487         -42.365
                        0.415647        -45.2176         0.384732         -40.409          0.72018        -166.244         0.400698        -42.1308