! Touchstone file from project test_mixed
! Exported from HFSS 2018.1.0
! Variables:
!  Lb1 = 500mm
!  Lb2 = 400mm
!  Lb3 = 600mm
!  R1 = 130mm
!  R2 = 100mm
!  R3 = 70mm
!  Rinn = 150mm
!  Rout = 200mm
# GHZ S MA R 50.000000
! Modal data exported
! Port[1] = 1:1
! Port[2] = 2:1
! Port[3] = 3:1
0.05             0.343117905905301 -176.375965532763 0.69215238117669 -45.9079486194234 0.634976522305037 -66.0950497048211 
                0.69215238117669 -45.9079486194234 0.407305044401679 171.449223808213 0.595841994186702 -67.5509114405297 
                0.634976522305037 -66.095049704821 0.595841994186701 -67.5509114405297 0.491708383175451 123.5400608657   
! Gamma         !               0                1.04792251097582 0                1.04792251097589 0                1.04792251097583 
! Port Impedance50               0                50               0                50               0                

