! Touchstone file from project test_mixed
! Exported from HFSS 2018.1.0
! Variables:
!  Lb1 = 500mm
!  Lb2 = 400mm
!  Lb3 = 600mm
!  R1 = 130mm
!  R2 = 100mm
!  R3 = 70mm
!  Rinn = 150mm
!  Rout = 200mm
!Data is not renormalized
# GHZ S MA
! Modal data exported
! Port[1] = 1:1
! Port[2] = 2:1
! Port[3] = 3:1
0.05             0.0505827742418734 -167.599701428877 0.774926630479706 -49.3115994547764 0.630023888692616 -60.3687072955363 
                0.774926630479706 -49.3115994547764 0.389731707711787 145.468415566088 0.497592115469512 -52.5717859725057 
                0.630023888692615 -60.3687072955363 0.497592115469511 -52.5717859725057 0.596214714930126 120.929306561073 
! Gamma         !               0                1.04792251097582 0                1.04792251097589 0                1.04792251097583 
! Port Impedance25.7646657548967 0                41.4836170458833 0                62.8586848264655 0                

