! Touchstone file exported from HFSS 2019.2.0
!        File:           /home/riccardo/Ansoft/test.aedt
!        Generated:      12:55:33 PM  Dec 20, 2019
!        Design:         HFSSDesign1
!        Project:        test
!        Setup:          Setup1
!        Solution:       LastAdaptive
!
! Variables:
!        L = 1000mm
!        OD = 10mm
!        Z0 = 30ohm
!
# GHZ S MA R 30.000000
! Modal data exported
! Port[1] = 1:1
! Port[2] = 2:1
0.055                          0.00251342757988019 -36.2891319923214 0.997287454279184 -66.2059525910306 0.997287454279183 -66.2059525910306 0.00245812221222187 -35.5359476700636 
! Gamma         !               0.00271485723693804 1.15543604102987 0.00271526055314444 1.15543651652683 
! Port Impedance30               0                30               0                

