! Touchstone file exported from HFSS 2019.2.0
!        File:           /home/riccardo/Documents/TWA_TITAN/TITAN_TWA_6s_v5.aedt
!        Generated:      5:13:22 PM  Dec 11, 2019
!        Design:         TWA_model_ports_conform_tap
!        Project:        TITAN_TWA_6s_v5
!        Setup:          Setup1
!        Solution:       Sweep
!
! Variables:
!        b_dl = 150mm
!        b_h = 250mm
!        b_l = 1950mm
!        b_lbg = 1000mm
!        b_rd = 225mm
!        b_wt = 10mm
!        c_g = 10mm
!        c_l = 230mm
!        c_t = 15mm
!        c_w = 200mm
!        c_wt = 10mm
!        cap_1_l = 215mm
!        cap_2_l = 160mm
!        cap_3_l = 115mm
!        cap_4_l = 115mm
!        cap_5_l = 160mm
!        cap_6_l = 215mm
!        cap_off = 10mm
!        cwp_d = 100mm
!        cx_1_bnd_r = 100mm
!        cx_1_d1 = 260mm
!        cx_l = 35mm
!        cx_ri = 38.495117903mm
!        cx_ro = 63.5mm
!        dmb_d = 100mm
!        s_b = 150mm
!        s_fillet = 7.5mm
!        s_fillet_sf = 12mm
!        s_foot_fillet = 7.5mm
!        s_foot_h = 25mm
!        s_foot_l = 72.5mm
!        s_l = 250mm
!        s_lwg = 250mm
!        s_r = 60mm
!        s_rcr = 10mm
!        s_t = 15mm
!        s_w = 200mm
!        s_z = 250mm
!        shift_x = -360mm
!        shift_y = -0mm
!        shift_z = -140mm
!        t_fillet = 7.5mm
!        t_h = 175mm
!        trm_1_delta = 0mm
!        trm_2_delta = 0mm
!        trm_3_delta = 0
!        trm_4_delta = 0
!        trm_5_delta = 0mm
!        trm_6_delta = 0mm
!        trm_h = 0mm
!        trm_hold_h = 25mm
!        trm_r = 80mm
!        trm_r_c = 75mm
!        trm_v_g = 25mm
!
# GHZ S MA R 30.000000
! Modal data exported
! Port[1] = 1:1
! Port[2] = 2:1
! Port[3] = 3:1
! Port[4] = 4:1
! Port[5] = 5:1
! Port[6] = 6:1
! Port[7] = 7:1
! Port[8] = 8:1
0.045                          0.722774344274372 -50.9699749156986 0.00123062542349597 -41.6028745756761 0.657325385062861 -63.7273244377475 0.190679840046724 -102.992871239731 
                0.0612168688498121 -137.863993682508 0.0203425588622856 -168.156921465399 0.00667170150552681 166.429442741633 0.00184701040906883 138.706208152842 
                0.00123062542349598 -41.6028745756761 0.718638253562274 156.625191958034 0.00185063565361754 62.3421262287501 0.00663756879792707 89.6273902166889 
                0.0202607386732728 115.412428287901 0.0610640609886718 145.835537451369 0.190369941657966 -179.257300369534 0.655479640416656 -139.946422716243 
                0.657325385062861 -63.7273244377475 0.00185063565361753 62.3421262287501 0.68695111489162 110.407492042922 0.287339966664189 0.582266088929356 
                0.0922776124423688 -34.2282393559871 0.0306313695056369 -64.3611631251537 0.0100300840813098 -89.6714575271737 0.00277716265043332 -117.350971820899 
                0.190679840046724 -102.992871239731 0.00663756879792708 89.6273902166888 0.287339966664189 0.582266088929357 0.868962899988779 103.675456578151 
                0.332429927722009 6.67810991087035 0.106791261554899 -28.4170408563071 0.0351052306525501 -58.3864490824037 0.00998820786061921 -90.1680306105204 
                0.0612168688498122 -137.863993682508 0.0202607386732728 115.412428287901 0.0922776124423689 -34.2282393559871 0.332429927722009 6.67810991087037 
                0.865201625280168 102.544946710729 0.336651298831187 6.11778702047961 0.10696437415555 -28.442894623778 0.0305435103501956 -64.506336703911 
                0.0203425588622856 -168.156921465399 0.0610640609886718 145.835537451369 0.0306313695056369 -64.3611631251537 0.106791261554899 -28.4170408563071 
                0.336651298831188 6.11778702047951 0.865022766691285 102.535426676204 0.332978379621106 6.62735129321451 0.0921556190471412 -34.2493785087169 
                0.00667170150552684 166.429442741633 0.190369941657966 -179.257300369534 0.0100300840813098 -89.6714575271738 0.0351052306525501 -58.3864490824038 
                0.10696437415555 -28.4428946237781 0.332978379621106 6.62735129321452 0.868751365090797 103.562605694662 0.287207215602244 0.595454494413026 
                0.00184701040906884 138.706208152842 0.655479640416656 -139.946422716243 0.00277716265043333 -117.350971820899 0.0099882078606192 -90.1680306105205 
                0.0305435103501956 -64.506336703911 0.0921556190471412 -34.249378508717 0.287207215602244 0.595454494413073 0.687553610527333 110.55805100967  
! Gamma         !               0.00140431071995912 0.944536673769478 0.0014044394294539 0.944537716434034 0.00327131680428474 0.946413580383566 0.00329902507119065 0.946448663923559 
!               0.00327222308866401 0.946415334398315 0.00327158207017099 0.946413955617089 0.00327135923443693 0.94641358202813 0.00329675723097553 0.946441119974731 
! Port Impedance30               0                30               0                30               0                30               0                
!               30               0                30               0                30               0                30               0                

