! Touchstone file exported from HFSS 2019.2.0
!        File:           /home/riccardo/Documents/TWA_TITAN/TITAN_TWA_6s_v5.aedt
!        Generated:      10:03:12 AM  Dec 11, 2019
!        Design:         TWA_model_ports_conform_tap
!        Project:        TITAN_TWA_6s_v5
!        Setup:          Setup1
!        Solution:       Sweep
!
! Variables:
!        b_dl = 150mm
!        b_h = 250mm
!        b_l = 1950mm
!        b_lbg = 1000mm
!        b_rd = 225mm
!        b_wt = 10mm
!        c_g = 10mm
!        c_l = 230mm
!        c_t = 15mm
!        c_w = 200mm
!        c_wt = 10mm
!        cap_1_l = 215mm
!        cap_2_l = 160mm
!        cap_3_l = 115mm
!        cap_4_l = 115mm
!        cap_5_l = 160mm
!        cap_6_l = 215mm
!        cap_off = 10mm
!        cwp_d = 100mm
!        cx_1_bnd_r = 100mm
!        cx_1_d1 = 260mm
!        cx_l = 35mm
!        cx_ri = 38.495117903mm
!        cx_ro = 63.5mm
!        dmb_d = 100mm
!        s_b = 150mm
!        s_fillet = 7.5mm
!        s_fillet_sf = 12mm
!        s_foot_fillet = 7.5mm
!        s_foot_h = 25mm
!        s_foot_l = 72.5mm
!        s_l = 250mm
!        s_lwg = 250mm
!        s_r = 60mm
!        s_rcr = 10mm
!        s_t = 15mm
!        s_w = 200mm
!        s_z = 250mm
!        shift_x = -360mm
!        shift_y = -0mm
!        shift_z = -140mm
!        t_fillet = 7.5mm
!        t_h = 175mm
!        trm_1_delta = 0mm
!        trm_2_delta = 0mm
!        trm_3_delta = 0
!        trm_4_delta = 0
!        trm_5_delta = 0mm
!        trm_6_delta = 0mm
!        trm_h = 0mm
!        trm_hold_h = 25mm
!        trm_r = 80mm
!        trm_r_c = 75mm
!        trm_v_g = 25mm
!
!Data is not renormalized
# GHZ S MA
! Modal data exported
! Port[1] = 1:1
! Port[2] = 2:1
! Port[3] = 3:1
! Port[4] = 4:1
! Port[5] = 5:1
! Port[6] = 6:1
! Port[7] = 7:1
! Port[8] = 8:1
0.045                          0.816620201709684 -32.1475721049238 3.05858602059429E-05 -21.0190568236639 0.566634263866949 -86.4814886883024 0.0672664992639214 -155.956555362118 
                0.00925963397904405 150.247160363343 0.00127542890867832 123.65865190709  0.000239613867295845 144.510974101881 9.15366267798758E-05 163.436509712054 
                3.05858602059429E-05 -21.0190568236639 0.815596657204724 175.562280467915 9.25355179067615E-05 84.1905851232082 0.000226307017755374 63.8970717612801 
                0.00126215823707902 46.3921777563558 0.00919830160212661 73.8917900069368 0.0667289411665146 127.9172299271   0.562418497459888 -162.729837297135 
                0.566634263866949 -86.4814886883024 9.25355179067615E-05 84.1905851232082 0.799263646717602 39.9348080311605 0.199623973556041 -52.9845478790152 
                0.0274163576419461 -106.533659051221 0.00366212411926053 -131.964822230046 0.00069043038231443 -107.952022687429 0.000275710820478925 -91.4553195347312 
                0.0672664992639214 -155.956555362118 0.000226307017755374 63.8970717612801 0.199623973556041 -52.9845478790152 0.954632873812609 39.7987324380246 
                0.213905924374279 -51.2521113604195 0.0293320545041388 -105.928402111083 0.00393364769413901 -133.74240499996 0.000652057957352388 -111.923356498849 
                0.00925963397904405 150.247160363343 0.00126215823707902 46.3921777563559 0.0274163576419461 -106.533659051221 0.213905924374279 -51.2521113604195 
                0.953339841952764 39.912780440801  0.214446177704709 -51.2145360715354 0.0294299473057011 -105.792964499204 0.00365193681553539 -133.065982605464 
                0.00127542890867833 123.65865190709  0.00919830160212661 73.8917900069368 0.00366212411926053 -131.964822230046 0.0293320545041388 -105.928402111083 
                0.21444617770471 -51.2145360715355 0.953187900459923 39.9050127812739 0.214587046631365 -51.161055842166 0.0274828006523691 -106.729615858634 
                0.000239613867295845 144.510974101881 0.0667289411665145 127.9172299271   0.00069043038231443 -107.952022687429 0.00393364769413901 -133.74240499996 
                0.0294299473057011 -105.792964499204 0.214587046631365 -51.161055842166 0.954442582835847 39.9849372050793 0.199847889622583 -52.9579502178097 
                9.15366267798758E-05 163.436509712054 0.562418497459888 -162.729837297135 0.000275710820478925 -91.4553195347312 0.000652057957352388 -111.923356498849 
                0.00365193681553539 -133.065982605464 0.0274828006523691 -106.729615858634 0.199847889622583 -52.9579502178097 0.801419598932491 39.726412819398  
! Gamma         !               0.00140431071995912 0.944536673769478 0.0014044394294539 0.944537716434034 0.00327131680428474 0.946413580383566 0.00329902507119065 0.946448663923559 
!               0.00327222308866401 0.946415334398315 0.00327158207017099 0.946413955617089 0.00327135923443693 0.94641358202813 0.00329675723097553 0.946441119974731 
! Port Impedance30.0471828487774 -0.0446636437147118 30.2585033107395 -0.0447335015780532 7.72774193194269 -0.0267068337546161 7.67589453225557 -0.0267147211173308 
!               7.72885848174263 -0.026706457949354 7.72887014679285 -0.0267060810065454 7.72775286645967 -0.0267064341740981 7.67556878701329 -0.0267148307374981 

0.0451                         0.816576871603715 -32.5987000429392 3.07567883779184E-05 -21.2957822883969 0.566703913486827 -86.7476181513779 0.0671488890333418 -156.267929897314 
                0.0092282181088324 149.928024273328 0.00126925578818074 123.435725758022 0.000239328170654723 144.2372424465   9.17824788700031E-05 163.295318718719 
                3.07567883779184E-05 -21.295782288397 0.815551261869119 174.77756643948  9.28289758045302E-05 83.8991700325622 0.000226321679368307 63.7658508451104 
                0.00125620622632303 46.0057801314703 0.00916644534624126 73.4017093128819 0.0666105147783771 127.439217924917 0.562489137373767 -163.162572213342 
                0.566703913486826 -86.7476181513779 9.28289758045302E-05 83.8991700325622 0.799291374144095 39.8501872218167 0.199306324265699 -53.0683190500855 
                0.0273272468974408 -106.624271641892 0.00364496920431538 -131.95899242621 0.000690358532088286 -107.854652695379 0.000276461264828592 -91.3866196528921 
                0.0671488890333418 -156.267929897314 0.000226321679368307 63.7658508451104 0.199306324265699 -53.0683190500855 0.954778179913113 39.7032688221574 
                0.213585231407688 -51.3439360936788 0.029238814693999 -106.029689243326 0.00391525293607591 -133.739343848308 0.00065271926226471 -111.616305981092 
                0.00922821810883239 149.928024273328 0.00125620622632303 46.0057801314704 0.0273272468974409 -106.624271641892 0.213585231407688 -51.3439360936788 
                0.953485700666041 39.8171111718424 0.214124838405744 -51.3063988828927 0.0293363383578852 -105.894626195206 0.00363463542387946 -133.048546790073 
                0.00126925578818074 123.435725758022 0.00916644534624125 73.4017093128819 0.00364496920431538 -131.95899242621 0.029238814693999 -106.029689243326 
                0.214124838405745 -51.3063988828928 0.953334351620222 39.8094116383757 0.214264779641349 -51.2529845371493 0.0273879220447219 -106.826829270333 
                0.000239328170654723 144.2372424465   0.0666105147783771 127.439217924917 0.000690358532088286 -107.854652695379 0.00391525293607591 -133.739343848308 
                0.0293363383578852 -105.894626195206 0.214264779641349 -51.2529845371493 0.954590655140998 39.8890938119541 0.199518292803953 -53.0415796783943 
                9.17824788700031E-05 163.295318718719 0.562489137373767 -163.162572213342 0.000276461264828592 -91.3866196528921 0.00065271926226471 -111.616305981092 
                0.00363463542387946 -133.048546790073 0.0273879220447219 -106.826829270333 0.199518292803954 -53.0415796783944 0.801448576517088 39.6427201977351 
! Gamma         !               0.0014058725360776 0.946634080617132 0.00140600238516036 0.946635124586753 0.00327496289527385 0.948513071654698 0.00330270700781314 0.948548199982243 
!               0.00327587080521767 0.948514828262767 0.00327522857211416 0.948513447340884 0.00327500534549467 0.948513073265563 0.00330043317284066 0.948540643228305 
! Port Impedance30.0471331970959 -0.0446141392839036 30.2584535810716 -0.044683919557541 7.72771219595101 -0.0266773129415879 7.67586478601514 -0.026685193269821 
!               7.72882874620076 -0.0266769375166908 7.72884041168444 -0.0266765609717819 7.72772313092138 -0.0266769137931472 7.67553904082176 -0.0266853026095745 

0.0452                         0.816534145921483 -33.0498230378245 3.09287327112162E-05 -21.5634858473972 0.566772613894515 -87.0136074036742 0.0670315517687716 -156.57901355413 
                0.00919695271205087 149.609341857841 0.00126314484707469 123.21392849178  0.00023897057592506 143.96541813571  9.2030221564665E-05 163.15265026399  
                3.09287327112163E-05 -21.5634858473975 0.815505904856896 173.992843901234 9.31249448719952E-05 83.6071344303652 0.000226324887566451 63.6306598819255 
                0.00125030389352466 45.6201116105162 0.0091347809910366 72.9122697872116 0.0664925386493716 126.9614645959   0.562559177712117 -163.595192714725 
                0.566772613894514 -87.0136074036742 9.31249448719952E-05 83.6071344303652 0.799319431580299 39.7658633671171 0.198989488289621 -53.1518103786242 
                0.027238566339473 -106.714437796454 0.00362795340940402 -131.951554142904 0.000690272015353719 -107.757497687598 0.000277214755525286 -91.318229247888 
                0.0670315517687716 -156.57901355413 0.00022632488756645 63.6306598819256 0.198989488289621 -53.1518103786242 0.954922884381945 39.6081123535013 
                0.213265217934033 -51.4354773583837 0.0291459925068416 -106.130539529026 0.00389700502850493 -133.735639702847 0.000653291904188736 -111.315154034966 
                0.00919695271205086 149.609341857841 0.00125030389352466 45.6201116105162 0.027238566339473 -106.714437796454 0.213265217934033 -51.4354773583837 
                0.953630982903607 39.7217479926511 0.213804182474643 -51.3979793614493 0.0292431562657193 -105.995846341147 0.00361747993868318 -133.030328556546 
                0.00126314484707469 123.213928491779 0.00913478099103659 72.9122697872116 0.00362795340940402 -131.951554142904 0.0291459925068416 -106.130539529026 
                0.213804182474644 -51.3979793614494 0.953480212372958 39.7141148608886 0.213943261117928 -51.3446389387367 0.027294323579371 -106.923127793915 
                0.00023897057592506 143.965418135711 0.0664925386493716 126.9614645959   0.000690272015353719 -107.757497687598 0.00389700502850494 -133.735639702847 
                0.0292431562657193 -105.995846341147 0.213943261117928 -51.3446389387367 0.954737912335731 39.7935422059931 0.199190825799582 -53.1249908625351 
                9.2030221564665E-05 163.15265026399  0.562559177712118 -163.595192714725 0.000277214755525287 -91.318229247888 0.000653291904188736 -111.315154034966 
                0.00361747993868318 -133.030328556546 0.027294323579371 -106.923127793915 0.199190825799583 -53.1249908625352 0.801477283317056 39.5592062955608 
! Gamma         !               0.00140743262155915 0.948731485734408 0.00140756361005608 0.948732531006158 0.0032786049461758 0.950612558886049 0.00330638487173204 0.950647731957348 
!               0.00327951448073682 0.950614318085192 0.00327887103356766 0.950612935024384 0.00327864741638095 0.950612560463238 0.00330410504327676 0.95064016240811 
! Port Impedance30.0470837101664 -0.0445647989521174 30.2584040164099 -0.0446345018947857 7.72768255868134 -0.0266478899000025 7.67583513853093 -0.026655763213108 
!               7.72879910938014 -0.0266475148537427 7.72881077529604 -0.0266471387054729 7.7276934941037  -0.0266474911822627 7.67550939338714 -0.0266558722739681 

0.0453                         0.816492021007115 -33.5009410280046 3.11014096159926E-05 -21.8208245412719 0.566840371649139 -87.2794571518314 0.0669144879465337 -156.889807840678 
                0.00916583704326763 149.291111152361 0.00125709519364192 122.993244239389 0.000238538405900584 143.698013054222 9.22799291160341E-05 163.008448971756 
                3.11014096159927E-05 -21.8208245412723 0.815460602286226 173.20811116506  9.34235945975267E-05 83.3144833999586 0.00022631729820997 63.4914383007458 
                0.00124445078880441 45.2351668762418 0.0091033064111237 72.4234614581853 0.0663750069549032 126.483968400382 0.562628622694416 -164.027699461304 
                0.566840371649138 -87.2794571518313 9.34235945975267E-05 83.3144833999586 0.799347816104888 39.6818348806143 0.198673464458892 -53.2350233322627 
                0.0271503137380823 -106.804159296487 0.00361107624190147 -131.942534137779 0.000690170084073425 -107.660494131332 0.000277971407356265 -91.2501585572204 
                0.0669144879465336 -156.889807840678 0.000226317298209969 63.4914383007458 0.198673464458892 -53.2350233322627 0.955066989589669 39.513261471137  
                0.212945883864851 -51.526736551149 0.0290535861737323 -106.230954539315 0.00387890260027301 -133.731294591781 0.000653783093453574 -111.020133514271 
                0.00916583704326761 149.291111152361 0.00124445078880441 45.2351668762419 0.0271503137380823 -106.804159296487 0.212945883864851 -51.526736551149 
                0.95377569073395 39.626689348258  0.213484209755446 -51.4892788862136 0.0291503989656309 -106.096626536477 0.00360046895898703 -133.011331917886 
                0.00125709519364192 122.993244239389 0.0091033064111237 72.4234614581853 0.00361107624190147 -131.942534137779 0.0290535861737323 -106.230954539315 
                0.213484209755447 -51.4892788862137 0.953625485154774 39.6191209405918 0.213622488598669 -51.4360201468266 0.0272018677792692 -107.018519563861 
                0.000238538405900584 143.698013054223 0.0663750069549032 126.483968400382 0.000690170084073426 -107.660494131332 0.00387890260027301 -133.731294591781 
                0.0291503989656309 -106.096626536477 0.21362248859867 -51.4360201468266 0.954884371400312 39.6982815211894 0.198865350963327 -53.2081796261383 
                9.2279929116034E-05 163.008448971756 0.562628622694417 -164.027699461304 0.000277971407356265 -91.2501585572204 0.000653783093453574 -111.020133514271 
                0.00360046895898703 -133.011331917886 0.0272018677792692 -107.018519563861 0.198865350963329 -53.2081796261385 0.801505767072905 39.4758807941355 
! Gamma         !               0.00140899098215358 0.950828889127035 0.00140912310983134 0.950829935698045 0.00328224297041342 0.952712042090988 0.00331005867647139 0.952747259862379 
!               0.00328315412864727 0.952713803878966 0.0032825094679558 0.95271241868096 0.00328228546051995 0.952712043634525 0.00330777285580978 0.952739677527626 
! Port Impedance30.047034387079  -0.0445156218138284 30.258354615843  -0.0445852476826629 7.72765301958845 -0.0266185640910148 7.67580558925753 -0.0266264304082989 
!               7.7287695707355  -0.0266181894217153 7.7287812370824  -0.0266178136688312 7.72766395546138 -0.0266181658026079 7.67547984416395 -0.026626539191777 

0.0454                         0.816450493228552 -33.9520539519308 3.12744333857021E-05 -22.0662944253595 0.566907193242305 -87.545168097272 0.0667976980081803 -157.200314259595 
                0.00913487035915922 148.973330206559 0.00125110595290182 122.77365745758  0.000238030849193858 143.437857906215 9.25316832082923E-05 162.862653639145 
                3.12744333857021E-05 -22.06629442536  0.815415369707363 172.423366562707 9.37251145429931E-05 83.0212219148686 0.000226299572209343 63.3481351680292 
                0.00123864646706465 44.8509406816538 0.00907201950866413 71.9352745567066 0.0662579139884543 126.00672781361  0.562697476416021 -164.460093114884 
                0.566907193242303 -87.5451680972719 9.37251145429931E-05 83.0212219148686 0.799376524833413 39.5981001863265 0.198358251584096 -53.3179593690657 
                0.0270624868721939 -106.893437914646 0.00359433717291948 -131.931958832806 0.000690051988733677 -107.563570205891 0.000278731344839958 -91.1824189640249 
                0.0667976980081802 -157.200314259595 0.000226299572209342 63.3481351680293 0.198358251584096 -53.3179593690657 0.955210497905524 39.4187146239929 
                0.212627229084889 -51.6177150600668 0.0289615939272033 -106.330935836997 0.00386094429878765 -133.726310475902 0.000654199891224686 -110.731414573129 
                0.0091348703591592 148.973330206559 0.00123864646706465 44.8509406816539 0.0270624868721939 -106.893437914646 0.212627229084889 -51.6177150600668 
                0.953919826227515 39.5319336935448 0.213164920066483 -51.5802988277578 0.0290580644008645 -106.196968374942 0.00358360110235567 -132.991560835328 
                0.00125110595290182 122.77365745758  0.00907201950866412 71.9352745567066 0.00359433717291948 -131.931958832806 0.0289615939272033 -106.330935836997 
                0.213164920066483 -51.5802988277579 0.953770172399447 39.5244283782883 0.213302459643349 -51.5271292579701 0.0271104416001423 -107.113023733428 
                0.000238030849193859 143.437857906216 0.0662579139884543 126.00672781361  0.000690051988733676 -107.563570205891 0.00386094429878766 -133.726310475902 
                0.0290580644008645 -106.196968374942 0.21330245964335 -51.5271292579701 0.955030048432308 39.6033108862096 0.198541746061158 -53.2911424050491 
                9.25316832082922E-05 162.862653639145 0.562697476416022 -164.460093114884 0.000278731344839958 -91.1824189640249 0.000654199891224686 -110.731414573129 
                0.00358360110235567 -132.991560835328 0.0271104416001423 -107.113023733428 0.19854174606116 -53.2911424050494 0.801534068246686 39.3927523485624 
! Gamma         !               0.00141054762357837 0.952926290800708 0.001410680890147 0.952927338668175 0.00328587698133409 0.954811521282813 0.00331372843547914 0.954846783710767 
!               0.00328678976229937 0.954813285657394 0.00328614388862745 0.954811898323913 0.00328591949126036 0.954811522792721 0.00331143662388964 0.95483918860026 
! Port Impedance30.0469852269306 -0.0444666069704885 30.2583053784667 -0.0445361560210444 7.72762357813131 -0.0265893349799274 7.6757761376537  -0.0265971943206471 
!               7.7287401297258  -0.0265889606859595 7.72875179650245 -0.0265885853272147 7.72763451445342 -0.0265889371194937 7.67545039261092 -0.0265973028282448 

0.0455                         0.816409558977487 -34.403161748081 3.14472864328812E-05 -22.2982177230732 0.566973085098832 -87.8107409362404 0.0666811823610833 -157.510534307869 
                0.00910405191855281 148.655997084276 0.00124517626627746 122.555152921083 0.000237449414554983 143.188022132971 9.27855738936764E-05 162.715196399564 
                3.14472864328813E-05 -22.2982177230738 0.815370222112445 171.638608445973 9.40297172541441E-05 82.7273546892782 0.000226272372669537 63.2007090695161 
                0.00123289048794085 44.4674278490832 0.00904091821328034 71.4476995129925 0.0661412541595826 125.529741325402 0.562765742849529 -164.892374338966 
                0.56697308509883 -87.8107409362403 9.40297172541441E-05 82.7273546892782 0.79940555491781 39.5146577186476 0.198043848455785 -53.4006199376048 
                0.0269750835296856 -106.982275414664 0.0035777356394471 -131.919854310595 0.00068991698628897 -107.46664508892 0.000279494703335491 -91.1150231506644 
                0.0666811823610831 -157.510534307869 0.000226272372669536 63.2007090695162 0.198043848455785 -53.4006199376048 0.955353411697201 39.3244702707714 
                0.212309253452578 -51.7084142647688 0.0288700140013904 -106.430484976555 0.0038431287897814 -133.720689249139 0.000654549147448817 -110.449110679543 
                0.00910405191855279 148.655997084276 0.00123289048794085 44.4674278490832 0.0269750835296856 -106.982275414664 0.212309253452578 -51.7084142647689 
                0.954063391456456 39.4374794931706 0.212846313200828 -51.6710405482805 0.0289661505215608 -106.296873444565 0.00356687500461964 -132.971019219468 
                0.00124517626627746 122.555152921083 0.00904091821328034 71.4476995129925 0.0035777356394471 -131.919854310595 0.0288700140013904 -106.430484976555 
                0.212846313200828 -51.6710405482806 0.953914276537665 39.430035683743  0.212983171833712 -51.6179673653797 0.0270199514848975 -107.206665623408 
                0.000237449414554985 143.188022132972 0.0661412541595826 125.529741325403 0.00068991698628897 -107.466645088921 0.0038431287897814 -133.720689249138 
                0.0289661505215608 -106.296873444565 0.212983171833713 -51.6179673653797 0.955174958695556 39.5086294235807 0.198219902214797 -53.3738761354593 
                9.27855738936762E-05 162.715196399564 0.56276574284953 -164.892374338966 0.000279494703335491 -91.1150231506644 0.000654549147448817 -110.449110679543 
                0.00356687500461964 -132.971019219468 0.0270199514848975 -107.206665623408 0.1982199022148  -53.3738761354596 0.801562221198503 39.30982869653   
! Gamma         !               0.00141210255151901 0.955023690761091 0.0014122369566347 0.955024739922277 0.00328950699221037 0.95691099647475 0.00331739416212784 0.956946303515871 
!               0.00329042139496863 0.956912763433704 0.00328977430885664 0.95691137396647 0.00328954952187603 0.95691099795105 0.00331509636089087 0.956938695639345 
! Port Impedance30.0469362288252 -0.0444177535304577 30.2582563033836 -0.0444872260167295 7.72759423377309 -0.0265602020361502 7.6757467831824  -0.0265680544195117 
!               7.72871078581416 -0.0265598281159311 7.72872245301933 -0.0265594531500862 7.72760517054297 -0.026559804602338 7.67542103819096 -0.0265681626527204 

0.0456                         0.816369214669311 -34.8542643549595 3.16192814021902E-05 -22.5147334002649 0.567038053577481 -88.0761763598415 0.0665649413790217 -157.820469476655 
                0.00907338098246718 148.339109863498 0.00123930529126883 122.33771571515  0.000236798306236695 142.951692895705 9.30417006694519E-05 162.566001739014 
                3.16192814021903E-05 -22.5147334002657 0.815325173945368 170.853835186886 9.43376416867331E-05 82.4328859793859 0.000226236362147853 63.0491279442431 
                0.00122718241575332 44.0846232692562 0.00901000048195617 70.9607269532922 0.0660250219919486 125.053007439811 0.562833425846139 -165.324543798678 
                0.567038053577478 -88.0761763598414 9.43376416867331E-05 82.432885979386  0.79943490354592 39.4315059222571 0.197730253844944 -53.4830064770308 
                0.0268881015074539 -107.070673551354 0.00356127104641092 -131.906246311208 0.000689764349739328 -107.36962823556 0.00028026163030758 -91.0479852776402 
                0.0665649413790215 -157.820469476655 0.000226236362147852 63.0491279442432 0.197730253844944 -53.4830064770308 0.955495733330649 39.2305268798758 
                0.211991956800506 -51.7988355364884 0.0287788446321673 -106.529603504165 0.0038254547570806 -133.714432739102 0.000654837451673648 -110.173284628312 
                0.00907338098246716 148.339109863498 0.00122718241575332 44.0846232692562 0.0268881015074539 -107.070673551354 0.211991956800506 -51.7988355364885 
                0.954206388494397 39.3433252214975 0.212528388926751 -51.7615054016693 0.0288746552848329 -106.396343327638 0.00355028931962115 -132.949710931383 
                0.00123930529126883 122.33771571515  0.00901000048195617 70.9607269532922 0.00356127104641092 -131.906246311208 0.0287788446321673 -106.529603504165 
                0.212528388926751 -51.7615054016694 0.954057799996805 39.3359413756215 0.212664622773235 -51.708535558938 0.0269303194990664 -107.2994736178  
                0.000236798306236697 142.951692895707 0.0660250219919487 125.053007439811 0.000689764349739328 -107.36962823556 0.00382545475708061 -133.714432739102 
                0.0288746552848329 -106.396343327638 0.212664622773236 -51.708535558938 0.9553191166668  39.4142362490239 0.197899722164808 -53.4563781870936 
                9.30417006694517E-05 162.566001739014 0.56283342584614 -165.324543798678 0.00028026163030758 -91.0479852776402 0.000654837451673648 -110.173284628312 
                0.00355028931962115 -132.949710931383 0.0269303194990664 -107.2994736178  0.19789972216481 -53.456378187094 0.801590255162553 39.2271167544022 
! Gamma         !               0.00141365577162918 0.95712108901382 0.00141379131489705 0.95712213946605 0.0032931330162407 0.959010467679953 0.00332105586971525 0.959045819290977 
!               0.00329404903985631 0.959012237221058 0.00329340074184323 0.959010845621785 0.00329317556556657 0.959010469122666 0.0033187520801132 0.959038198658143 
! Port Impedance30.0468873918735 -0.0443690606089363 30.2582073897033 -0.0444384567833766 7.72756498598105 -0.0265311647331599 7.67571752531071 -0.0265390101783169 
!               7.72868153846783 -0.0265307911851504 7.72869320610028 -0.0265304166109726 7.7275759231973  -0.0265307677246251 7.6753917803711  -0.0265391181386171 

0.0457                         0.816329456743055 -35.3053617110972 3.17895132334976E-05 -22.7137942897862 0.567102104971673 -88.3414750540805 0.0664489754027645 -158.130121251107 
                0.00904285681415271 148.022666636332 0.00123349220113316 122.121331228279 0.000236084652975973 142.732015474867 9.3300173720632E-05 162.414985334989 
                3.17895132334977E-05 -22.7137942897872 0.81528023911173 170.069045177876 9.46491572576004E-05 82.1378193203155 0.000226192200042139 62.8933688742228 
                0.00122152181945921 43.70252190037   0.00897926429892776 70.474347696657  0.0659092121213693 124.576524674788 0.562900529137003 -165.756602160681 
                0.56710210497167 -88.3414750540804 9.46491572576004E-05 82.1378193203155 0.799464567941007 39.348643252032  0.197417466503445 -53.5651204171469 
                0.0268015386114766 -107.158634070614 0.0035449427686573 -131.891160229426 0.000689593379533933 -107.272418665975 0.000281032286772503 -90.9813211927551 
                0.0664489754027643 -158.130121251106 0.000226192200042137 62.8933688742229 0.197417466503445 -53.5651204171469 0.955637465169862 39.1368829293384 
                0.211675338935885 -51.8889802381216 0.0286880840572778 -106.628292957708 0.0038079209023785 -133.707542707612 0.00065507109562035 -109.903954423821 
                0.00904285681415268 148.022666636332 0.00122152181945921 43.7025219003701 0.0268015386114766 -107.158634070614 0.211675338935885 -51.8889802381216 
                0.954348819416193 39.2494693625182 0.212211146988161 -51.8516947335627 0.0287835766548413 -106.495379600711 0.0035338427189639 -132.927639783731 
                0.00123349220113316 122.121331228278 0.00897926429892776 70.474347696657  0.0035449427686573 -131.891160229426 0.0286880840572778 -106.628292957708 
                0.212211146988162 -51.8516947335628 0.954200745200729 39.2421439814295 0.212346810086898 -51.7988349252065 0.0268414803022598 -107.391477195027 
                0.000236084652975976 142.732015474869 0.0659092121213693 124.576524674788 0.000689593379533933 -107.272418665975 0.0038079209023785 -133.707542707612 
                0.0287835766548413 -106.495379600711 0.212346810086899 -51.7988349252065 0.955462536080049 39.3201304709197 0.197581118796701 -53.5386463068425 
                9.33001737206317E-05 162.414985334989 0.562900529137004 -165.756602160681 0.000281032286772503 -90.9813211927551 0.00065507109562035 -109.903954423821 
                0.0035338427189639 -132.927639783731 0.0268414803022598 -107.391477195027 0.197581118796704 -53.5386463068429 0.801618195059107 39.1446227022099 
! Gamma         !               0.00141520728953109 0.959218485564498 0.00141534397050777 0.959219537305158 0.00329675506654995 0.961109934911504 0.00332471357146499 0.9611453310493  
!               0.00329767271009014 0.961111707032544 0.00329702320071351 0.961110313302942 0.00329679763545803 0.961109936320651 0.00332240379478226 0.961137697669844 
! Port Impedance30.0468387151933 -0.0443205273278973 30.2581586365423 -0.0443898474414357 7.72753583422658 -0.02650222254846 7.67568836350979 -0.0265100610745126 
!               7.72865238715816 -0.0265018493711624 7.72866405521664 -0.0265014751874255 7.72754677188779 -0.0265018259638661 7.67536261862248 -0.0265101687633734 

0.0458                         0.816290281661338 -35.7564537550508 3.19567990358902E-05 -22.8931755611575 0.567165245510207 -88.6066376999013 0.0663332847406502 -158.439491110206 
                0.00901247867913012 147.706665508978 0.00122773618457226 121.905985145142 0.000235318526352482 142.531904436485 9.35611153582193E-05 162.262052679791 
                3.19567990358904E-05 -22.8931755611586 0.81523543098884 169.28423683193  9.49645686570029E-05 81.8421571781485 0.00022614054012362 62.7334178335424 
                0.00121590827260504 43.3211187671708 0.00894870767556565 69.9885527517582 0.0657938192938998 124.100291561854 0.562967056334578 -166.188550093097 
                0.567165245510203 -88.6066376999011 9.49645686570029E-05 81.8421571781485 0.799494545361289 39.2660681729579 0.197105485164501 -53.6469631784802 
                0.0267153926568745 -107.246158709424 0.00352875015285845 -131.874621112454 0.000689403416992873 -107.174904281209 0.000281806848955793 -90.9150486765756 
                0.06633328474065 -158.439491110206 0.000226140540123618 62.7334178335425 0.197105485164501 -53.6469631784802 0.955778609576699 39.0435369067485 
                0.211359399641009 -51.978849724288 0.0285977305164651 -106.726554866785 0.00379052594501245 -133.700020851217 0.000655256046261217 -109.641098932174 
                0.00901247867913009 147.706665508978 0.00121590827260504 43.3211187671708 0.0267153926568745 -107.246158709424 0.211359399641009 -51.978849724288 