! Touchstone file from project TITAN_TWA_6s_v4
! Exported from HFSS 2019.2.0
! Variables:
!        c_gap = 10mm
!        c_l = 130mm
!        c_t = 35mm
!        c_w = 220mm
!        cb_l = 240mm
!        s_t = 15mm
!        s_w = 200mm
!        sc_d = 10mm
!        t_r = 80mm
!        t_t_fillet = 10mm
!        t_th = 25mm
!        t_tr = 75mm
!        t_vac_fillet = 10mm
!        t_vac_h = 25mm
!        t_voff = 15mm
!
!Data is not renormalized
# GHZ S MA
! Modal data exported
! Port[1] = 1:1
0.045                          0.999132657768838 -14.3709632826437 
! Gamma         !               0.00327124036312125 0.946413497195697 
! Port Impedance7.72770632804089 -0.0267067644641457 

0.0451                         0.999131685248049 -14.4028705033062 
! Gamma         !               0.00327488470814691 0.948512991162774 
! Port Impedance7.72767659812285 -0.0266772450603944 

0.0452                         0.999130713864171 -14.4347778430959 
! Gamma         !               0.00327852514881633 0.950612480892294 
! Port Impedance7.72764696643485 -0.0266478233689632 

0.0453                         0.999129743610785 -14.4666853026217 
! Gamma         !               0.00328216169274827 0.952711966403756 
! Port Impedance7.7276174324525  -0.0266184988493502 

0.0454                         0.999128774481528 -14.4985928824899 
! Gamma         !               0.00328579434763597 0.954811447716513 
! Port Impedance7.72758799565509 -0.0265892709654474 

0.0455                         0.999127806470099 -14.5305005833043 
! Gamma         !               0.00328942312124525 0.956910924849779 
! Port Impedance7.72755865552554 -0.0265601391854898 

0.0456                         0.999126839570258 -14.5624084056661 
! Gamma         !               0.00329304802141277 0.959010397822628 
! Port Impedance7.72752941155041 -0.0265311029820042 

0.0457                         0.99912587377582 -14.5943163501738 
! Gamma         !               0.00329666905604416 0.961109866653988 
! Port Impedance7.7275002632198  -0.0265021618317597 

0.0458                         0.999124909080662 -14.6262244174239 
! Gamma         !               0.00330028623311226 0.963209331362651 
! Port Impedance7.7274712100274  -0.0264733152157184 

0.0459                         0.999123945478718 -14.65813260801  
! Gamma         !               0.00330389956065537 0.965308791967262 
! Port Impedance7.72744225147039 -0.0264445626189868 

0.046                          0.99912298296398 -14.6900409225237 
! Gamma         !               0.00330750904677551 0.967408248486329 
! Port Impedance7.72741338704945 -0.0264159035307681 

0.0461                         0.9991220215305  -14.7219493615542 
! Gamma         !               0.00331111469963667 0.969507700938217 
! Port Impedance7.7273846162687  -0.0263873374443156 

0.0462                         0.999121061172385 -14.7538579256883 
! Gamma         !               0.00331471652746315 0.971607149341149 
! Port Impedance7.7273559386357  -0.0263588638568858 

0.0463                         0.999120101883803 -14.7857666155107 
! Gamma         !               0.00331831453853787 0.973706593713211 
! Port Impedance7.72732735366138 -0.0263304822696931 

0.0464                         0.999119143658976 -14.8176754316039 
! Gamma         !               0.00332190874120068 0.975806034072343 
! Port Impedance7.72729886086007 -0.0263021921878648 

0.0465                         0.999118186492186 -14.8495843745483 
! Gamma         !               0.00332549914384677 0.977905470436348 
! Port Impedance7.72727045974941 -0.0262739931203968 

0.0466                         0.999117230377769 -14.8814934449221 
! Gamma         !               0.003329085754925 0.980004902822887 
! Port Impedance7.72724214985035 -0.0262458845801098 

0.0467                         0.99911627531012 -14.9134026433015 
! Gamma         !               0.00333266858293635 0.982104331249482 
! Port Impedance7.72721393068712 -0.0262178660836068 

0.0468                         0.999115321283689 -14.9453119702606 
! Gamma         !               0.00333624763643229 0.984203755733514 
! Port Impedance7.7271858017872  -0.0261899371512302 

0.0469                         0.999114368292984 -14.9772214263718 
! Gamma         !               0.00333982292401326 0.986303176292224 
! Port Impedance7.7271577626813  -0.02616209730702 

0.047                          0.999113416332565 -15.0091310122051 
! Gamma         !               0.0033433944543271 0.988402592942715 
! Port Impedance7.7271298129033  -0.0261343460786733 

0.0471                         0.999112465397052 -15.0410407283291 
! Gamma         !               0.00334696223606751 0.990502005701948 
! Port Impedance7.72710195199028 -0.0261066829975031 

0.0472                         0.999111515481118 -15.0729505753102 
! Gamma         !               0.00335052627797262 0.992601414586749 
! Port Impedance7.72707417948243 -0.0260791075983988 

0.0473                         0.999110566579491 -15.1048605537131 
! Gamma         !               0.00335408658882339 0.994700819613801 
! Port Impedance7.72704649492307 -0.0260516194197864 

0.0474                         0.999109618686954 -15.1367706641007 
! Gamma         !               0.00335764317744226 0.996800220799651 
! Port Impedance7.72701889785861 -0.0260242180035902 

0.0475                         0.999108671798346 -15.1686809070343 
! Gamma         !               0.00336119605269159 0.998899618160707 
! Port Impedance7.72699138783851 -0.0259969028951941 

0.0476                         0.999107725908557 -15.2005912830732 
! Gamma         !               0.00336474522347232 1.00099901171324 
! Port Impedance7.72696396441527 -0.0259696736434042 

0.0477                         0.999106781012536 -15.2325017927753 
! Gamma         !               0.00336829069872247 1.00309840147338 
! Port Impedance7.7269366271444  -0.0259425298004116 

0.0478                         0.999105837105281 -15.2644124366967 
! Gamma         !               0.00337183248741583 1.00519778745713 
! Port Impedance7.72690937558441 -0.0259154709217555 

0.0479                         0.999104894181846 -15.296323215392 
! Gamma         !               0.00337537059856052 1.00729716968034 
! Port Impedance7.72688220929674 -0.0258884965662878 

0.048                          0.999103952237338 -15.3282341294143 
! Gamma         !               0.00337890504119762 1.00939654815873 
! Port Impedance7.7268551278458  -0.0258616062961367 

0.0481                         0.999103011266916 -15.3601451793149 
! Gamma         !               0.00338243582439989 1.0114959229079  
! Port Impedance7.72682813079889 -0.0258347996766722 

0.0482                         0.999102071265794 -15.3920563656441 
! Gamma         !               0.00338596295727037 1.01359529394329 
! Port Impedance7.7268012177262  -0.0258080762764712 

0.0483                         0.999101132229236 -15.4239676889501 
! Gamma         !               0.00338948644894111 1.01569466128021 
! Port Impedance7.72677438820079 -0.0257814356672837 

0.0484                         0.999100194152559 -15.4558791497803 
! Gamma         !               0.00339300630857188 1.01779402493385 
! Port Impedance7.72674764179856 -0.025754877423999 

0.0485                         0.999099257031133 -15.4877907486803 
! Gamma         !               0.00339652254534886 1.01989338491924 
! Port Impedance7.72672097809824 -0.0257284011246126 

0.0486                         0.999098320860378 -15.5197024861946 
! Gamma         !               0.0034000351684834 1.02199274125131 
! Port Impedance7.72669439668133 -0.0257020063501937 

0.0487                         0.999097385635766 -15.5516143628661 
! Gamma         !               0.00340354418721078 1.02409209394483 
! Port Impedance7.72666789713212 -0.0256756926848528 

0.0488                         0.999096451352821 -15.5835263792367 
! Gamma         !               0.00340704961078896 1.02619144301443 
! Port Impedance7.72664147903764 -0.0256494597157101 

0.0489                         0.999095518007117 -15.6154385358469 
! Gamma         !               0.00341055144849739 1.02829078847463 
! Port Impedance7.72661514198767 -0.025623307032864 

0.049                          0.999094585594279 -15.647350833236 
! Gamma         !               0.00341404970963581 1.03039013033982 
! Port Impedance7.72658888557467 -0.0255972342293607 

0.0491                         0.999093654109982 -15.6792632719421 
! Gamma         !               0.00341754440352305 1.03248946862422 
! Port Impedance7.72656270939379 -0.025571240901163 

0.0492                         0.999092723549951 -15.7111758525021 
! Gamma         !               0.00342103553949587 1.03458880334195 
! Port Impedance7.72653661304286 -0.0255453266471211 

0.0493                         0.999091793909962 -15.743088575452 
! Gamma         !               0.00342452312690783 1.03668813450701 
! Port Impedance7.72651059612233 -0.0255194910689424 

0.0494                         0.999090865185839 -15.7750014413263 
! Gamma         !               0.00342800717512813 1.03878746213323 
! Port Impedance7.7264846582353  -0.0254937337711627 

0.0495                         0.999089937373456 -15.8069144506587 
! Gamma         !               0.00343148769354052 1.04088678623434 
! Port Impedance7.72645879898743 -0.0254680543611171 

0.0496                         0.999089010468735 -15.8388276039818 
! Gamma         !               0.00343496469154215 1.04298610682393 
! Port Impedance7.72643301798699 -0.0254424524489119 

0.0497                         0.999088084467649 -15.8707409018273 
! Gamma         !               0.00343843817854253 1.04508542391547 
! Port Impedance7.72640731484481 -0.0254169276473963 

0.0498                         0.999087159366217 -15.9026543447257 
! Gamma         !               0.0034419081639624 1.04718473752227 
! Port Impedance7.72638168917425 -0.0253914795721351 

0.0499                         0.999086235160509 -15.9345679332067 
! Gamma         !               0.00344537465723272 1.04928404765755 
! Port Impedance7.72635614059117 -0.0253661078413814 

0.05                           0.999085311846639 -15.9664816677991 
! Gamma         !               0.0034488376677936 1.05138335433439 
! Port Impedance7.72633066871398 -0.0253408120760493 

0.0501                         0.999084389420772 -15.9983955490306 
! Gamma         !               0.00345229720509327 1.05348265756573 
! Port Impedance7.72630527316352 -0.025315591899688 

0.0502                         0.999083467879119 -16.0303095774282 
! Gamma         !               0.00345575327858704 1.05558195736438 
! Port Impedance7.72627995356313 -0.0252904469384554 

0.0503                         0.999082547217939 -16.0622237535182 
! Gamma         !               0.00345920589773636 1.05768125374306 
! Port Impedance7.72625470953856 -0.0252653768210921 

0.0504                         0.999081627433538 -16.0941380778256 
! Gamma         !               0.00346265507200774 1.05978054671432 
! Port Impedance7.726229540718   -0.0252403811788963 

0.0505                         0.999080708522265 -16.1260525508752 
! Gamma         !               0.00346610081087184 1.06187983629061 
! Port Impedance7.72620444673206 -0.0252154596456985 

0.0506                         0.999079790480521 -16.1579671731907 
! Gamma         !               0.00346954312380249 1.06397912248425 
! Port Impedance7.7261794272137  -0.0251906118578368 

0.0507                         0.999078873304749 -16.189881945295 
! Gamma         !               0.00347298202027573 1.06607840530742 
! Port Impedance7.72615448179827 -0.0251658374541323 

0.0508                         0.99907795699144 -16.2217968677106 
! Gamma         !               0.00347641750976887 1.06817768477221 
! Port Impedance7.72612961012348 -0.0251411360758654 

0.0509                         0.999077041537129 -16.2537119409589 
! Gamma         !               0.0034798496017596 1.07027696089056 
! Port Impedance7.72610481182934 -0.0251165073667515 

0.051                          0.999076126938397 -16.2856271655611 
! Gamma         !               0.00348327830572503 1.07237623367428 
! Port Impedance7.72608008655821 -0.025091950972918 

0.0511                         0.999075213191869 -16.3175425420375 
! Gamma         !               0.00348670363114083 1.07447550313508 
! Port Impedance7.72605543395472 -0.0250674665428806 

0.0512                         0.999074300294218 -16.3494580709077 
! Gamma         !               0.00349012558748032 1.07657476928455 
! Port Impedance7.72603085366578 -0.025043053727521 

0.0513                         0.999073388242156 -16.381373752691 
! Gamma         !               0.00349354418421362 1.07867403213413 
! Port Impedance7.72600634534059 -0.0250187121800641 

0.0514                         0.999072477032445 -16.4132895879059 
! Gamma         !               0.00349695943080679 1.08077329169517 
! Port Impedance7.72598190863056 -0.0249944415560555 

0.0515                         0.999071566661887 -16.4452055770705 
! Gamma         !               0.00350037133672095 1.08287254797888 
! Port Impedance7.72595754318934 -0.0249702415133399 

0.0516                         0.999070657127329 -16.4771217207023 
! Gamma         !               0.00350377991141147 1.08497180099635 
! Port Impedance7.72593324867281 -0.0249461117120395 

0.0517                         0.999069748425661 -16.5090380193184 
! Gamma         !               0.00350718516432717 1.08707105075858 
! Port Impedance7.72590902473901 -0.0249220518145319 

0.0518                         0.999068840553818 -16.5409544734353 
! Gamma         !               0.00351058710490945 1.08917029727641 
! Port Impedance7.72588487104818 -0.0248980614854299 

0.0519                         0.999067933508775 -16.5728710835692 
! Gamma         !               0.00351398574259153 1.09126954056059 
! Port Impedance7.72586078726272 -0.0248741403915599 

0.052                          0.999067027287552 -16.6047878502358 
! Gamma         !               0.00351738108679768 1.09336878062175 
! Port Impedance7.72583677304717 -0.0248502882019418 

0.0521                         0.99906612188721 -16.6367047739505 
! Gamma         !               0.00352077314694239 1.09546801747038 
! Port Impedance7.72581282806821 -0.0248265045877686 

0.0522                         0.999065217304853 -16.6686218552281 
! Gamma         !               0.00352416193242964 1.09756725111689 
! Port Impedance7.72578895199461 -0.0248027892223858 

0.0523                         0.999064313537626 -16.7005390945832 
! Gamma         !               0.00352754745265215 1.09966648157154 
! Port Impedance7.72576514449727 -0.0247791417812727 

0.0524                         0.999063410582715 -16.7324564925302 
! Gamma         !               0.00353092971699062 1.1017657088445  
! Port Impedance7.72574140524915 -0.0247555619420216 

0.0525                         0.999062508437351 -16.7643740495829 
! Gamma         !               0.00353430873481302 1.10386493294581 
! Port Impedance7.72571773392528 -0.0247320493843196 

0.0526                         0.999061607098802 -16.796291766255 
! Gamma         !               0.00353768451547384 1.10596415388541 
! Port Impedance7.72569413020274 -0.0247086037899287 

0.0527                         0.999060706564378 -16.8282096430599 
! Gamma         !               0.00354105706831341 1.1080633716731  
! Port Impedance7.72567059376067 -0.0246852248426675 

0.0528                         0.99905980683143 -16.8601276805107 
! Gamma         !               0.00354442640265718 1.11016258631861 
! Port Impedance7.7256471242802  -0.0246619122283926 

0.0529                         0.99905890789735 -16.8920458791203 
! Gamma         !               0.00354779252781507 1.11226179783151 
! Port Impedance7.72562372144448 -0.0246386656349799 

0.053                          0.999058009759569 -16.9239642394014 
! Gamma         !               0.00355115545308071 1.11436100622129 
! Port Impedance7.72560038493865 -0.0246154847523068 

0.0531                         0.999057112415558 -16.9558827618664 
! Gamma         !               0.00355451518773089 1.11646021149732 
! Port Impedance7.72557711444984 -0.0245923692722344 

0.0532                         0.999056215862827 -16.9878014470278 
! Gamma         !               0.0035578717410248 1.11855941366886 
! Port Impedance7.72555390966713 -0.0245693188885894 

0.0533                         0.999055320098927 -17.0197202953977 
! Gamma         !               0.00356122512220343 1.12065861274506 
! Port Impedance7.72553077028154 -0.0245463332971471 

0.0534                         0.999054425121447 -17.0516393074881 
! Gamma         !               0.00356457534048894 1.12275780873495 
! Port Impedance7.72550769598605 -0.024523412195614 

0.0535                         0.999053530928014 -17.083558483811 
! Gamma         !               0.00356792240508401 1.12485700164748 
! Port Impedance7.72548468647555 -0.0245005552836109 

0.0536                         0.999052637516294 -17.1154778248783 
! Gamma         !               0.00357126632517125 1.12695619149145 
! Port Impedance7.72546174144682 -0.0244777622626557 

0.0537                         0.999051744883994 -17.1473973312016 
! Gamma         !               0.00357460710991255 1.12905537827559 
! Port Impedance7.72543886059855 -0.0244550328361473 

0.0538                         0.999050853028854 -17.1793170032927 
! Gamma         !               0.00357794476844854 1.1311545620085  
! Port Impedance7.72541604363132 -0.0244323667093491 

0.0539                         0.999049961948656 -17.2112368416632 
! Gamma         !               0.00358127930989795 1.13325374269869 
! Port Impedance7.72539329024753 -0.0244097635893725 

0.054                          0.999049071641218 -17.2431568468249 
! Gamma         !               0.00358461074335706 1.13535292035455 
! Port Impedance7.7253706001515  -0.0243872231851612 

0.0541                         0.999048182104396 -17.2750770192893 
! Gamma         !               0.00358793907789914 1.13745209498436 
! Port Impedance7.72534797304933 -0.0243647452074753 

0.0542                         0.999047293336081 -17.3069973595681 
! Gamma         !               0.00359126432257384 1.13955126659632 
! Port Impedance7.72532540864896 -0.0243423293688757 

0.0543                         0.999046405334204 -17.338917868173 
! Gamma         !               0.00359458648640672 1.1416504351985  
! Port Impedance7.72530290666017 -0.0243199753837088 

0.0544                         0.99904551809673 -17.3708385456157 
! Gamma         !               0.00359790557839861 1.14374960079888 
! Port Impedance7.72528046679451 -0.0242976829680908 

0.0545                         0.999044631621661 -17.4027593924081 
! Gamma         !               0.00360122160752518 1.14584876340533 
! Port Impedance7.72525808876533 -0.0242754518398934 

0.0546                         0.999043745907036 -17.434680409062 
! Gamma         !               0.00360453458273632 1.14794792302563 
! Port Impedance7.72523577228773 -0.0242532817187283 

0.0547                         0.999042860950928 -17.4666015960893 
! Gamma         !               0.00360784451295569 1.15004707966745 
! Port Impedance7.72521351707862 -0.0242311723259326 

0.0548                         0.999041976751449 -17.4985229540023 
! Gamma         !               0.0036111514070802 1.15214623333834 
! Port Impedance7.7251913228566  -0.0242091233845545 

0.0549                         0.999041093306742 -17.5304444833132 
! Gamma         !               0.00361445527397948 1.15424538404579 
! Port Impedance7.72516918934206 -0.024187134619339 

0.055                          0.999040210614988 -17.5623661845342 
! Gamma         !               0.00361775612249543 1.15634453179715 
! Port Impedance7.72514711625707 -0.0241652057567132 

0.0551                         0.999039328674404 -17.594288058178 
! Gamma         !               0.00362105396144171 1.15844367659969 
! Port Impedance7.72512510332544 -0.024143336524773 

0.0552                         0.999038447483237 -17.6262101047573 
! Gamma         !               0.00362434879960328 1.16054281846059 
! Port Impedance7.72510315027266 -0.0241215266532685 

0.0553                         0.999037567039774 -17.6581323247849 
! Gamma         !               0.00362764064573594 1.16264195738691 
! Port Impedance7.72508125682593 -0.0240997758735911 

0.0554                         0.999036687342331 -17.6900547187741 
! Gamma         !               0.00363092950856585 1.16474109338562 
! Port Impedance7.7250594227141  -0.0240780839187592 

0.0555                         0.999035808389262 -17.7219772872381 
! Gamma         !               0.0036342153967891 1.1668402264636  
! Port Impedance7.7250376476677  -0.0240564505234055 

0.0556                         0.999034930178953 -17.7539000306905 
! Gamma         !               0.00363749831907127 1.16893935662762 
! Port Impedance7.72501593141891 -0.0240348754237632 

0.0557                         0.999034052709823 -17.7858229496452 
! Gamma         !               0.00364077828404696 1.17103848388437 
! Port Impedance7.72499427370154 -0.0240133583576534 

0.0558                         0.999033175980326 -17.8177460446163 
! Gamma         !               0.00364405530031943 1.17313760824044 
! Port Impedance7.72497267425104 -0.0239918990644718 

0.0559                         0.999032299988947 -17.8496693161182 
! Gamma         !               0.00364732937646012 1.1752367297023  
! Port Impedance7.72495113280447 -0.0239704972851764 

0.056                          0.999031424734206 -17.8815927646655 
! Gamma         !               0.00365060052100825 1.17733584827637 
! Port Impedance7.7249296491005  -0.0239491527622744 

0.0561                         0.999030550214652 -17.9135163907733 
! Gamma         !               0.00365386874247044 1.17943496396893 
! Port Impedance7.7249082228794  -0.0239278652398098 

0.0562                         0.999029676428871 -17.9454401949569 
! Gamma         !               0.0036571340493203 1.18153407678621 
! Port Impedance7.724886853883   -0.0239066344633515 

0.0563                         0.999028803375477 -17.977364177732 
! Gamma         !               0.00366039644999804 1.18363318673432 
! Port Impedance7.72486554185473 -0.0238854601799805 

0.0564                         0.999027931053119 -18.0092883396145 
! Gamma         !               0.00366365595291007 1.18573229381928 
! Port Impedance7.72484428653957 -0.0238643421382785 

0.0565                         0.999027059460476 -18.0412126811208 
! Gamma         !               0.00366691256642865 1.18783139804702 
! Port Impedance7.72482308768404 -0.023843280088315 

0.0566                         0.999026188596258 -18.0731372027678 
! Gamma         !               0.00367016629889152 1.18993049942339 
! Port Impedance7.72480194503622 -0.0238222737816368 

0.0567                         0.999025318459208 -18.1050619050725 
! Gamma         !               0.00367341715860152 1.19202959795413 
! Port Impedance7.7247808583457  -0.0238013229712551 

0.0568                         0.999024449048097 -18.1369867885526 
! Gamma         !               0.00367666515382624 1.19412869364491 
! Port Impedance7.7247598273636  -0.0237804274116349 

0.0569                         0.999023580361731 -18.168911853726 
! Gamma         !               0.00367991029279768 1.1962277865013  
! Port Impedance7.72473885184255 -0.023759586858683 

0.057                          0.999022712398942 -18.2008371011111 
! Gamma         !               0.00368315258371192 1.19832687652878 
! Port Impedance7.72471793153665 -0.023738801069737 

0.0571                         0.999021845158597 -18.2327625312268 
! Gamma         !               0.00368639203472873 1.20042596373274 
! Port Impedance7.72469706620152 -0.0237180698035541 

0.0572                         0.999020978639589 -18.2646881445923 
! Gamma         !               0.00368962865397131 1.2025250481185  
! Port Impedance7.72467625559425 -0.0236973928203002 

0.0573                         0.999020112840842 -18.2966139417275 
! Gamma         !               0.00369286244952592 1.20462412969127 
! Port Impedance7.72465549947337 -0.0236767698815387 

0.0574                         0.999019247761312 -18.3285399231527 
! Gamma         !               0.0036960934294416 1.20672320845618 
! Port Impedance7.7246347975989  -0.0236562007502198 

0.0575                         0.999018383399981 -18.3604660893885 
! Gamma         !               0.00369932160172982 1.20882228441828 
! Port Impedance7.72461414973229 -0.0236356851906701 

0.0576                         0.999017519755863 -18.3923924409563 
! Gamma         !               0.00370254697436419 1.21092135758253 
! Port Impedance7.72459355563643 -0.0236152229685817 

0.0577                         0.999016656827999 -18.4243189783778 
! Gamma         !               0.00370576955528019 1.21302042795381 
! Port Impedance7.72457301507562 -0.0235948138510021 

0.0578                         0.999015794615461 -18.4562457021753 
! Gamma         !               0.00370898935237484 1.21511949553691 
! Port Impedance7.72455252781559 -0.0235744576063233 

0.0579                         0.999014933117346 -18.4881726128716 
! Gamma         !               0.00371220637350642 1.21721856033653 
! Port Impedance7.72453209362348 -0.0235541540042724 

0.058                          0.999014072332784 -18.5200997109902 
! Gamma         !               0.00371542062649423 1.21931762235731 
! Port Impedance7.72451171226783 -0.0235339028159006 

0.0581                         0.999013212260929 -18.5520269970551 
! Gamma         !               0.00371863211911825 1.22141668160378 
! Port Impedance7.72449138351854 -0.023513703813574 

0.0582                         0.999012352900967 -18.5839544715906 
! Gamma         !               0.00372184085911892 1.2235157380804  
! Port Impedance7.72447110714692 -0.0234935567709631 

0.0583                         0.999011494252107 -18.6158821351221 
! Gamma         !               0.00372504685419686 1.22561479179154 
! Port Impedance7.72445088292563 -0.0234734614630333 

0.0584                         0.999010636313589 -18.6478099881751 
! Gamma         !               0.00372825011201261 1.22771384274151 
! Port Impedance7.72443071062869 -0.0234534176660353 

0.0585                         0.99900977908468 -18.679738031276 
! Gamma         !               0.00373145064018638 1.22981289093453 
! Port Impedance7.72441059003148 -0.0234334251574952 

0.0586                         0.999008922564673 -18.7116662649517 
! Gamma         !               0.00373464844629781 1.23191193637471 
! Port Impedance7.7243905209107  -0.0234134837162052 

0.0587                         0.999008066752888 -18.7435946897297 
! Gamma         !               0.00373784353788573 1.23401097906613 
! Port Impedance7.7243705030444  -0.0233935931222144 

0.0588                         0.999007211648674 -18.7755233061384 
! Gamma         !               0.00374103592244789 1.23611001901275 
! Port Impedance7.72435053621195 -0.023373753156819 

0.0589                         0.999006357251402 -18.8074521147065 
! Gamma         !               0.00374422560744077 1.23820905621848 
! Port Impedance7.72433062019401 -0.0233539636025537 

0.059                          0.999005503560474 -18.8393811159635 
! Gamma         !               0.00374741260027935 1.24030809068713 
! Port Impedance7.72431075477258 -0.0233342242431822 

0.0591                         0.999004650575315 -18.8713103104396 
! Gamma         !               0.00375059690833685 1.24240712242244 
! Port Impedance7.72429093973092 -0.0233145348636881 

0.0592                         0.999003798295377 -18.9032396986657 
! Gamma         !               0.00375377853894456 1.24450615142809 
! Port Impedance7.72427117485361 -0.0232948952502666 

0.0593                         0.999002946720138 -18.9351692811733 
! Gamma         !               0.00375695749939161 1.24660517770765 
! Port Impedance7.72425145992647 -0.023275305190315 

0.0594                         0.999002095849101 -18.9670990584946 
! Gamma         !               0.00376013379692476 1.24870420126465 
! Port Impedance7.72423179473663 -0.0232557644724244 

0.0595                         0.999001245681794 -18.9990290311627 
! Gamma         !               0.00376330743874819 1.25080322210252 
! Port Impedance7.72421217907243 -0.0232362728863707 

0.0596                         0.999000396217773 -19.030959199711 
! Gamma         !               0.00376647843202333 1.25290224022462 
! Port Impedance7.72419261272351 -0.0232168302231065 

0.0597                         0.998999547456612 -19.0628895646741 
! Gamma         !               0.00376964678386866 1.25500125563423 
! Port Impedance7.72417309548073 -0.0231974362747521 

0.0598                         0.998998699397918 -19.0948201265871 
! Gamma         !               0.00377281250135949 1.25710026833458 
! Port Impedance7.72415362713618 -0.0231780908345876 

0.0599                         0.998997852041317 -19.1267508859858 
! Gamma         !               0.00377597559152783 1.25919927832879 
! Port Impedance7.72413420748318 -0.0231587936970444 

0.06                           0.998997005386462 -19.1586818434069 
! Gamma         !               0.00377913606136215 1.26129828561995 
! Port Impedance7.72411483631628 -0.0231395446576967 

0.0601                         0.998996159433028 -19.1906129993878 
! Gamma         !               0.00378229391780729 1.26339729021103 
! Port Impedance7.72409551343122 -0.023120343513254 

0.0602                         0.998995314180716 -19.2225443544665 
! Gamma         !               0.00378544916776419 1.26549629210497 
! Port Impedance7.72407623862495 -0.0231011900615525 
