! Touchstone file exported from HFSS 2019.2.0
!        File:           /home/riccardo/Documents/TWA_TITAN/TITAN_TWA_6s_v5.aedt
!        Generated:      10:03:12 AM  Dec 11, 2019
!        Design:         TWA_model_ports_conform_tap
!        Project:        TITAN_TWA_6s_v5
!        Setup:          Setup1
!        Solution:       Sweep
!
! Variables:
!        b_dl = 150mm
!        b_h = 250mm
!        b_l = 1950mm
!        b_lbg = 1000mm
!        b_rd = 225mm
!        b_wt = 10mm
!        c_g = 10mm
!        c_l = 230mm
!        c_t = 15mm
!        c_w = 200mm
!        c_wt = 10mm
!        cap_1_l = 215mm
!        cap_2_l = 160mm
!        cap_3_l = 115mm
!        cap_4_l = 115mm
!        cap_5_l = 160mm
!        cap_6_l = 215mm
!        cap_off = 10mm
!        cwp_d = 100mm
!        cx_1_bnd_r = 100mm
!        cx_1_d1 = 260mm
!        cx_l = 35mm
!        cx_ri = 38.495117903mm
!        cx_ro = 63.5mm
!        dmb_d = 100mm
!        s_b = 150mm
!        s_fillet = 7.5mm
!        s_fillet_sf = 12mm
!        s_foot_fillet = 7.5mm
!        s_foot_h = 25mm
!        s_foot_l = 72.5mm
!        s_l = 250mm
!        s_lwg = 250mm
!        s_r = 60mm
!        s_rcr = 10mm
!        s_t = 15mm
!        s_w = 200mm
!        s_z = 250mm
!        shift_x = -360mm
!        shift_y = -0mm
!        shift_z = -140mm
!        t_fillet = 7.5mm
!        t_h = 175mm
!        trm_1_delta = 0mm
!        trm_2_delta = 0mm
!        trm_3_delta = 0
!        trm_4_delta = 0
!        trm_5_delta = 0mm
!        trm_6_delta = 0mm
!        trm_h = 0mm
!        trm_hold_h = 25mm
!        trm_r = 80mm
!        trm_r_c = 75mm
!        trm_v_g = 25mm
!
!Data is not renormalized
# GHZ S MA
! Modal data exported
! Port[1] = 1:1
! Port[2] = 2:1
! Port[3] = 3:1
! Port[4] = 4:1
! Port[5] = 5:1
! Port[6] = 6:1
! Port[7] = 7:1
! Port[8] = 8:1
0.045                          0.816620201709684 -32.1475721049238 3.05858602059429E-05 -21.0190568236639 0.566634263866949 -86.4814886883024 0.0672664992639214 -155.956555362118 
                0.00925963397904405 150.247160363343 0.00127542890867832 123.65865190709  0.000239613867295845 144.510974101881 9.15366267798758E-05 163.436509712054 
                3.05858602059429E-05 -21.0190568236639 0.815596657204724 175.562280467915 9.25355179067615E-05 84.1905851232082 0.000226307017755374 63.8970717612801 
                0.00126215823707902 46.3921777563558 0.00919830160212661 73.8917900069368 0.0667289411665146 127.9172299271   0.562418497459888 -162.729837297135 
                0.566634263866949 -86.4814886883024 9.25355179067615E-05 84.1905851232082 0.799263646717602 39.9348080311605 0.199623973556041 -52.9845478790152 
                0.0274163576419461 -106.533659051221 0.00366212411926053 -131.964822230046 0.00069043038231443 -107.952022687429 0.000275710820478925 -91.4553195347312 
                0.0672664992639214 -155.956555362118 0.000226307017755374 63.8970717612801 0.199623973556041 -52.9845478790152 0.954632873812609 39.7987324380246 
                0.213905924374279 -51.2521113604195 0.0293320545041388 -105.928402111083 0.00393364769413901 -133.74240499996 0.000652057957352388 -111.923356498849 
                0.00925963397904405 150.247160363343 0.00126215823707902 46.3921777563559 0.0274163576419461 -106.533659051221 0.213905924374279 -51.2521113604195 
                0.953339841952764 39.912780440801  0.214446177704709 -51.2145360715354 0.0294299473057011 -105.792964499204 0.00365193681553539 -133.065982605464 
                0.00127542890867833 123.65865190709  0.00919830160212661 73.8917900069368 0.00366212411926053 -131.964822230046 0.0293320545041388 -105.928402111083 
                0.21444617770471 -51.2145360715355 0.953187900459923 39.9050127812739 0.214587046631365 -51.161055842166 0.0274828006523691 -106.729615858634 
                0.000239613867295845 144.510974101881 0.0667289411665145 127.9172299271   0.00069043038231443 -107.952022687429 0.00393364769413901 -133.74240499996 
                0.0294299473057011 -105.792964499204 0.214587046631365 -51.161055842166 0.954442582835847 39.9849372050793 0.199847889622583 -52.9579502178097 
                9.15366267798758E-05 163.436509712054 0.562418497459888 -162.729837297135 0.000275710820478925 -91.4553195347312 0.000652057957352388 -111.923356498849 
                0.00365193681553539 -133.065982605464 0.0274828006523691 -106.729615858634 0.199847889622583 -52.9579502178097 0.801419598932491 39.726412819398  
! Gamma         !               0.00140431071995912 0.944536673769478 0.0014044394294539 0.944537716434034 0.00327131680428474 0.946413580383566 0.00329902507119065 0.946448663923559 
!               0.00327222308866401 0.946415334398315 0.00327158207017099 0.946413955617089 0.00327135923443693 0.94641358202813 0.00329675723097553 0.946441119974731 
! Port Impedance30.0471828487774 -0.0446636437147118 30.2585033107395 -0.0447335015780532 7.72774193194269 -0.0267068337546161 7.67589453225557 -0.0267147211173308 
!               7.72885848174263 -0.026706457949354 7.72887014679285 -0.0267060810065454 7.72775286645967 -0.0267064341740981 7.67556878701329 -0.0267148307374981 
