! Touchstone file exported from HFSS 2019.2.0
!        File:           /home/riccardo/Ansoft/test.aedt
!        Generated:      12:54:35 PM  Dec 20, 2019
!        Design:         HFSSDesign1
!        Project:        test
!        Setup:          Setup1
!        Solution:       LastAdaptive
!
! Variables:
!        L = 1000mm
!        OD = 10mm
!        Z0 = 30ohm
!
!Data is not renormalized
# GHZ S MA
! Modal data exported
! Port[1] = 1:1
! Port[2] = 2:1
0.055                          0.000244445481993213 -148.732458837554 0.997287098019567 -66.2061464165075 0.997287098019567 -66.2061464165075 0.000243876799989383 -163.347115257605 
! Gamma         !               0.00271485723693804 1.15543604102987 0.00271526055314444 1.15543651652683 
! Port Impedance30.0492999669546 -0.0705952428102175 30.0491413222689 -0.0705988188975314 

