! Touchstone file exported from HFSS 2019.2.0
!        File:           /home/riccardo/Documents/TWA_TITAN/TITAN_TWA_6s_v5.aedt
!        Generated:      5:13:22 PM  Dec 11, 2019
!        Design:         TWA_model_ports_conform_tap
!        Project:        TITAN_TWA_6s_v5
!        Setup:          Setup1
!        Solution:       Sweep
!
! Variables:
!        b_dl = 150mm
!        b_h = 250mm
!        b_l = 1950mm
!        b_lbg = 1000mm
!        b_rd = 225mm
!        b_wt = 10mm
!        c_g = 10mm
!        c_l = 230mm
!        c_t = 15mm
!        c_w = 200mm
!        c_wt = 10mm
!        cap_1_l = 215mm
!        cap_2_l = 160mm
!        cap_3_l = 115mm
!        cap_4_l = 115mm
!        cap_5_l = 160mm
!        cap_6_l = 215mm
!        cap_off = 10mm
!        cwp_d = 100mm
!        cx_1_bnd_r = 100mm
!        cx_1_d1 = 260mm
!        cx_l = 35mm
!        cx_ri = 38.495117903mm
!        cx_ro = 63.5mm
!        dmb_d = 100mm
!        s_b = 150mm
!        s_fillet = 7.5mm
!        s_fillet_sf = 12mm
!        s_foot_fillet = 7.5mm
!        s_foot_h = 25mm
!        s_foot_l = 72.5mm
!        s_l = 250mm
!        s_lwg = 250mm
!        s_r = 60mm
!        s_rcr = 10mm
!        s_t = 15mm
!        s_w = 200mm
!        s_z = 250mm
!        shift_x = -360mm
!        shift_y = -0mm
!        shift_z = -140mm
!        t_fillet = 7.5mm
!        t_h = 175mm
!        trm_1_delta = 0mm
!        trm_2_delta = 0mm
!        trm_3_delta = 0
!        trm_4_delta = 0
!        trm_5_delta = 0mm
!        trm_6_delta = 0mm
!        trm_h = 0mm
!        trm_hold_h = 25mm
!        trm_r = 80mm
!        trm_r_c = 75mm
!        trm_v_g = 25mm
!
# GHZ S MA R 30.000000
! Modal data exported
! Port[1] = 1:1
! Port[2] = 2:1
! Port[3] = 3:1
! Port[4] = 4:1
! Port[5] = 5:1
! Port[6] = 6:1
! Port[7] = 7:1
! Port[8] = 8:1
0.045                          0.722774344274372 -50.9699749156986 0.00123062542349597 -41.6028745756761 0.657325385062861 -63.7273244377475 0.190679840046724 -102.992871239731 
                0.0612168688498121 -137.863993682508 0.0203425588622856 -168.156921465399 0.00667170150552681 166.429442741633 0.00184701040906883 138.706208152842 
                0.00123062542349598 -41.6028745756761 0.718638253562274 156.625191958034 0.00185063565361754 62.3421262287501 0.00663756879792707 89.6273902166889 
                0.0202607386732728 115.412428287901 0.0610640609886718 145.835537451369 0.190369941657966 -179.257300369534 0.655479640416656 -139.946422716243 
                0.657325385062861 -63.7273244377475 0.00185063565361753 62.3421262287501 0.68695111489162 110.407492042922 0.287339966664189 0.582266088929356 
                0.0922776124423688 -34.2282393559871 0.0306313695056369 -64.3611631251537 0.0100300840813098 -89.6714575271737 0.00277716265043332 -117.350971820899 
                0.190679840046724 -102.992871239731 0.00663756879792708 89.6273902166888 0.287339966664189 0.582266088929357 0.868962899988779 103.675456578151 
                0.332429927722009 6.67810991087035 0.106791261554899 -28.4170408563071 0.0351052306525501 -58.3864490824037 0.00998820786061921 -90.1680306105204 
                0.0612168688498122 -137.863993682508 0.0202607386732728 115.412428287901 0.0922776124423689 -34.2282393559871 0.332429927722009 6.67810991087037 
                0.865201625280168 102.544946710729 0.336651298831187 6.11778702047961 0.10696437415555 -28.442894623778 0.0305435103501956 -64.506336703911 
                0.0203425588622856 -168.156921465399 0.0610640609886718 145.835537451369 0.0306313695056369 -64.3611631251537 0.106791261554899 -28.4170408563071 
                0.336651298831188 6.11778702047951 0.865022766691285 102.535426676204 0.332978379621106 6.62735129321451 0.0921556190471412 -34.2493785087169 
                0.00667170150552684 166.429442741633 0.190369941657966 -179.257300369534 0.0100300840813098 -89.6714575271738 0.0351052306525501 -58.3864490824038 
                0.10696437415555 -28.4428946237781 0.332978379621106 6.62735129321452 0.868751365090797 103.562605694662 0.287207215602244 0.595454494413026 
                0.00184701040906884 138.706208152842 0.655479640416656 -139.946422716243 0.00277716265043333 -117.350971820899 0.0099882078606192 -90.1680306105205 
                0.0305435103501956 -64.506336703911 0.0921556190471412 -34.249378508717 0.287207215602244 0.595454494413073 0.687553610527333 110.55805100967  
! Gamma         !               0.00140431071995912 0.944536673769478 0.0014044394294539 0.944537716434034 0.00327131680428474 0.946413580383566 0.00329902507119065 0.946448663923559 
!               0.00327222308866401 0.946415334398315 0.00327158207017099 0.946413955617089 0.00327135923443693 0.94641358202813 0.00329675723097553 0.946441119974731 
! Port Impedance30               0                30               0                30               0                30               0                
!               30               0                30               0                30               0                30               0                

0.0451                         0.722241528046339 -51.4350032895925 0.00122633046040347 -42.4686465534369 0.657901331350172 -64.0147016209264 0.190728496312943 -103.349846139922 
                0.0611957366855926 -138.279698179357 0.020321670383718 -168.620296768126 0.00666026564721746 165.930862680553 0.00184070181263841 138.232930610529 
                0.00122633046040347 -42.468646553437 0.718103187531716 155.819170045567 0.00184440287587988 61.702532266997  0.00662526614105145 88.9822098060814 
                0.0202384860406053 114.781281322346 0.0610347873379408 145.249415711632 0.190402516278699 -179.782580657907 0.656033333469713 -140.40193357647 
                0.65790133135017 -64.0147016209264 0.00184440287587987 61.702532266997  0.686351605344311 110.298972264382 0.287456034968545 0.454244747140379 
                0.0922593504761901 -34.414884685557 0.0306043787118106 -64.5958219177658 0.0100143681945545 -89.9347043328154 0.00276807982812423 -117.591623402413 
                0.190728496312943 -103.349846139922 0.00662526614105144 88.9822098060814 0.287456034968545 0.45424474714034 0.868809794328206 103.537778028363 
                0.332696565079513 6.54499318122245 0.106813585475641 -28.6096211521188 0.035090444474205 -58.6213092858062 0.00997096387381591 -90.4113425900441 
                0.0611957366855924 -138.279698179358 0.0202384860406052 114.781281322346 0.0922593504761901 -34.4148846855571 0.332696565079513 6.54499318122245 
                0.865000235544625 102.405720322285 0.336911469823939 5.98188628816321 0.106985763167762 -28.6350008148449 0.0305139415779075 -64.7373027225474 
                0.020321670383718 -168.620296768126 0.0610347873379407 145.249415711632 0.0306043787118107 -64.5958219177658 0.106813585475641 -28.6096211521188 
                0.33691146982394 5.98188628816309 0.864823651853007 102.396287541717 0.333241834788578 6.49499505605219 0.0921235478986011 -34.4354018088739 
                0.00666026564721746 165.930862680553 0.190402516278698 -179.782580657907 0.0100143681945545 -89.9347043328153 0.0350904444742051 -58.6213092858063 
                0.106985763167762 -28.6350008148448 0.333241834788578 6.49499505605222 0.86860946749512 103.425138807591 0.287299984584164 0.469786668785131 
                0.00184070181263842 138.232930610529 0.656033333469713 -140.40193357647 0.00276807982812425 -117.591623402413 0.00997096387381593 -90.4113425900441 
                0.0305139415779077 -64.7373027225476 0.0921235478986014 -34.4354018088739 0.287299984584165 0.469786668785029 0.686984538590079 110.452315111372 
! Gamma         !               0.0014058725360776 0.946634080617132 0.00140600238516036 0.946635124586753 0.00327496289527385 0.948513071654698 0.00330270700781314 0.948548199982243 
!               0.00327587080521767 0.948514828262767 0.00327522857211416 0.948513447340884 0.00327500534549467 0.948513073265563 0.00330043317284066 0.948540643228305 
! Port Impedance30               0                30               0                30               0                30               0                
!               30               0                30               0                30               0                30               0                

0.0452                         0.721710002940093 -51.8998893148632 0.00122202635591881 -43.333346517548 0.658475085514094 -64.3019289206635 0.190776319008248 -103.706606374004 
                0.0611743364136467 -138.695113810681 0.0203007027625646 -169.083201499619 0.00664871070719736 165.432684955057 0.00183438842750172 137.760061970121 
                0.00122202635591882 -43.333346517548 0.71756870485675 155.013263839015 0.00183817431740062 61.0637129503282 0.00661294305049361 88.336914371987  
                0.0202163312287027 114.150567385777 0.0610060772317351 144.663677362489 0.190435499128353 179.692281759122 0.65658567255381 -140.857391336246 
                0.658475085514092 -64.3019289206634 0.00183817431740062 61.063712950328  0.685753691136926 110.19056683375  0.287570995828862 0.326428439883474 
                0.0922407150356141 -34.6012509066918 0.0305772829526441 -64.8299916060333 0.0099985883201626 -90.1974777760156 0.00275900557862587 -117.831802309821 
                0.190776319008248 -103.706606374004 0.00661294305049357 88.3369143719871 0.287570995828862 0.326428439883489 0.8686576714221  103.400192511674 
                0.332961917479946 6.41201240548621 0.106835393205157 -28.8020102507219 0.0350754813472542 -58.855994998764 0.00995369145433257 -90.6550240208817 
                0.0611743364136465 -138.695113810681 0.0202163312287026 114.150567385777 0.0922407150356141 -34.6012509066917 0.332961917479945 6.41201240548625 
                0.864799789558978 102.266604755269 0.33717022069313 5.84611863258713 0.107006737615759 -28.8269840540479 0.0304846447481432 -64.9679726443624 
                0.0203007027625645 -169.083201499619 0.0610060772317349 144.663677362489 0.0305772829526442 -64.8299916060333 0.106835393205157 -28.8020102507219 
                0.337170220693131 5.84611863258704 0.86462521848262 102.257257492412 0.333504335393286 6.36267573017458 0.0920928921441363 -34.621260843378 
                0.00664871070719738 165.432684955057 0.190435499128352 179.692281759122 0.00999858832016262 -90.1974777760155 0.0350754813472542 -58.8559949987639 
                0.10700673761576 -28.826984054048 0.333504335393287 6.36267573017462 0.868467506639334 103.287702396965 0.287394106177382 0.34414379415857 
                0.00183438842750173 137.760061970121 0.65658567255381 -140.857391336246 0.0027590055786259 -117.831802309821 0.00995369145433262 -90.6550240208817 
                0.0304846447481434 -64.9679726443625 0.0920928921441368 -34.621260843378 0.287394106177383 0.344143794158424 0.686415131171199 110.346512937444 
! Gamma         !               0.00140743262155915 0.948731485734408 0.00140756361005608 0.948732531006158 0.0032786049461758 0.950612558886049 0.00330638487173204 0.950647731957348 
!               0.00327951448073682 0.950614318085192 0.00327887103356766 0.950612935024384 0.00327864741638095 0.950612560463238 0.00330410504327676 0.95064016240811 
! Port Impedance30               0                30               0                30               0                30               0                
!               30               0                30               0                30               0                30               0                

0.0453                         0.721179766981171 -52.3646334447964 0.00121771121968024 -44.1968656736081 0.659046657076109 -64.5890069148941 0.190823313995694 -104.063152853652 
                0.0611526713763072 -139.110241371839 0.0202796577920655 -169.545630459137 0.00663703080187031 164.935009812396 0.00182806808664354 137.287702026913 
                0.00121771121968025 -44.1968656736085 0.717034879698711 154.207474561105 0.00183194905385589 60.4256836369925 0.00660059948597972 87.6915069917177 
                0.0201942529691778 113.520278229776 0.0609778292496185 144.078321904449 0.190468785611246 179.167291668591 0.657136596147219 -141.312787447804 
                0.659046657076107 -64.5890069148941 0.00183194905385588 60.4256836369924 0.685157370292386 110.082275292251 0.287684855775395 0.198816460424208 
                0.0922217091554234 -34.7873388513093 0.0305500833242658 -65.0636758628719 0.00998274334465644 -90.4597768402217 0.00274993763093655 -118.071472952693 
                0.190823313995694 -104.063152853652 0.0066005994859797 87.6915069917177 0.287684855775395 0.198816460424222 0.86850652821611 103.262699790695 
                0.333225989894119 6.27916701771358 0.106856688636502 -28.9942078997693 0.0350603415602271 -59.0905012320013 0.00993638901211665 -90.8990545188585 
                0.0611526713763069 -139.110241371839 0.0201942529691776 113.520278229776 0.0922217091554235 -34.7873388513093 0.333225989894119 6.27916701771358 
                0.864600286600429 102.127599642363 0.337427561462068 5.71048466329924 0.107027293527219 -29.0188370165525 0.0304555695823527 -65.1983320496849 
                0.0202796577920655 -169.545630459137 0.0609778292496182 144.078321904449 0.0305500833242658 -65.0636758628719 0.106856688636502 -28.9942078997694 
                0.337427561462069 5.71048466329911 0.864427492430301 102.118335639497 0.333765867688467 6.23040342352351 0.0920634221776418 -34.806915150244 
                0.0066370308018703 164.935009812396 0.190468785611245 179.167291668591 0.00998274334465646 -90.4597768402216 0.0350603415602272 -59.0905012320014 
                0.10702729352722 -29.0188370165525 0.333765867688467 6.23040342352351 0.868325568580869 103.150300491377 0.287489353937275 0.218544769999356 
                0.00182806808664355 137.287702026913 0.657136596147219 -141.312787447804 0.00274993763093656 -118.071472952693 0.00993638901211673 -90.8990545188586 
                0.0304555695823529 -65.198332049685 0.0920634221776425 -34.8069151502439 0.287489353937277 0.218544769999166 0.685845589277079 110.240658965518 
! Gamma         !               0.00140899098215358 0.950828889127035 0.00140912310983134 0.950829935698045 0.00328224297041342 0.952712042090988 0.00331005867647139 0.952747259862379 
!               0.00328315412864727 0.952713803878966 0.0032825094679558 0.95271241868096 0.00328228546051995 0.952712043634525 0.00330777285580978 0.952739677527626 
! Port Impedance30               0                30               0                30               0                30               0                
!               30               0                30               0                30               0                30               0                

0.0454                         0.720650818216705 -52.8292361291972 0.00121338339399272 -45.059082798527 0.659616055478533 -64.8759361772886 0.190869487034229 -104.419486496341 
                0.0611307449312349 -139.525081807169 0.0202585377372391 -170.007578632005 0.00662522191697342 164.437953540281 0.00182173933051038 136.81595641355  
                0.00121338339399271 -45.0590827985272 0.716501780360329 153.40180334455  0.00182572641114889 59.7884603215786 0.00658823610852004 87.0459929826351 
                0.020172233558215 112.890405005936 0.060949958270142 143.493345361267 0.190502282289909 178.642453032935 0.657686047993909 -141.768114339478 
                0.65961605547853 -64.8759361772886 0.00182572641114888 59.7884603215788 0.684562640823141 109.974097182679 0.287797621304794 0.0714081055278018 
                0.0922023358337261 -34.9731493370142 0.0305227808241559 -65.296878329639 0.00996683209285196 -90.7216008080755 0.00274087423739897 -118.310604006817 
                0.190869487034229 -104.419486496341 0.00658823610852001 87.0459929826354 0.287797621304794 0.0714081055277673 0.868356361665807 103.125299630858 
                0.333488787185112 6.14645645765433 0.106877475400764 -29.1862139680504 0.035045025620928 -59.3248236617555 0.00991905662673687 -91.1434139332789 
                0.0611307449312347 -139.525081807169 0.0201722335582149 112.890405005936 0.0922023358337262 -34.9731493370142 0.333488787185112 6.14645645765433 
                0.864401725918754 101.988704638672 0.337683501078056 5.57498487256076 0.107047427414022 -29.2105534772981 0.0304266738767551 -65.4283719472806 
                0.0202585377372391 -170.007578632005 0.0609499582701416 143.493345361267 0.0305227808241559 -65.2968783296392 0.106877475400764 -29.1862139680505 
                0.337683501078058 5.5749848725607  0.864230495901691 101.979521286177 0.334026418139649 6.09818668684936 0.0920349435739941 -34.9923364815534 
                0.00662522191697342 164.437953540281 0.190502282289908 178.642453032935 0.00996683209285201 -90.7216008080755 0.0350450256209281 -59.3248236617555 
                0.107047427414023 -29.2105534772982 0.334026418139651 6.09818668684935 0.868183730220223 103.012936800077 0.287585525483133 0.0930057896993841 
                0.00182173933051039 136.81595641355  0.657686047993909 -141.768114339478 0.002740874237399 -118.310604006818 0.00991905662673695 -91.1434139332792 
                0.0304266738767554 -65.4283719472807 0.0920349435739949 -34.9923364815534 0.287585525483136 0.0930057896991758 0.685276090208676 110.134766491274 
! Gamma         !               0.00141054762357837 0.952926290800708 0.001410680890147 0.952927338668175 0.00328587698133409 0.954811521282813 0.00331372843547914 0.954846783710767 
!               0.00328678976229937 0.954813285657394 0.00328614388862745 0.954811898323913 0.00328591949126036 0.954811522792721 0.00331143662388964 0.95483918860026 
! Port Impedance30               0                30               0                30               0                30               0                
!               30               0                30               0                30               0                30               0                

0.0455                         0.72012315472022 -53.2936978147227 0.00120904144945323 -45.9198657910961 0.660183290085975 -65.1627172769097 0.190914843766507 -104.775608223112 
                0.0611085604168808 -139.939636235591 0.0202373453746819 -170.469041556937 0.00661328250762687 163.941645901189 0.00181540143308499 136.344936650317 
                0.00120904144945323 -45.9198657910963 0.71596946990934 152.596251230383 0.00181950591023601 59.1520605237956 0.0065758540618714 86.4003801184721 
                0.0201502581717889 112.260938864328 0.0609223924033229 142.908741733008 0.190535905541326 178.117769177591 0.658233976824178 -142.223365289243 
                0.660183290085972 -65.1627172769097 0.001819505910236 59.1520605237957 0.683969500730851 109.866032049436 0.287909298880527 -0.0557973250071441 
                0.0921825980387564 -35.1586831691191 0.0304953763755976 -65.5296025919908 0.00995085332581579 -90.9829489882368 0.0027318140594236 -118.549166457253 
                0.190914843766507 -104.775608223112 0.00657585406187136 86.4003801184722 0.287909298880527 -0.0557973250071251 0.86820716873145 102.987991800173 
                0.33375031412669 6.01388016904226 0.106897756939732 -29.3780284247203 0.0350295342355123 -59.5589584433881 0.00990169556820413 -91.3880811905011 
                0.0611085604168806 -139.939636235591 0.0201502581717888 112.260938864329 0.0921825980387564 -35.1586831691191 0.33375031412669 6.01388016904226 
                0.864204106722386 101.849919417461 0.337938047659216 5.43961964894523 0.107067136274174 -29.402128106903 0.0303979220574751 -65.6580869819748 
                0.0202373453746819 -170.469041556937 0.0609223924033225 142.908741733008 0.0304953763755977 -65.5296025919908 0.106897756939732 -29.3780284247203 
                0.337938047659217 5.43961964894517 0.864034248029955 101.840813876517 0.334285973813634 5.96603280279749 0.0920072910257593 -35.1775052631522 
                0.00661328250762689 163.941645901189 0.190535905541324 178.117769177591 0.00995085332581583 -90.9829489882368 0.0350295342355124 -59.5589584433882 
                0.107067136274175 -29.4021281069029 0.334285973813636 5.96603280279751 0.868042060515352 102.875614737433 0.287682439759389 -0.0324591869891565 
                0.00181540143308501 136.344936650317 0.658233976824179 -142.223365289243 0.00273181405942362 -118.549166457253 0.00990169556820422 -91.3880811905013 
                0.0303979220574754 -65.658086981975 0.0920072910257603 -35.1775052631523 0.287682439759393 -0.0324591869894712 0.684706790756889 110.028847708993 
! Gamma         !               0.00141210255151901 0.955023690761091 0.0014122369566347 0.955024739922277 0.00328950699221037 0.95691099647475 0.00331739416212784 0.956946303515871 
!               0.00329042139496863 0.956912763433704 0.00328977430885664 0.95691137396647 0.00328954952187603 0.95691099795105 0.00331509636089087 0.956938695639345 
! Port Impedance30               0                30               0                30               0                30               0                
!               30               0                30               0                30               0                30               0                

0.0456                         0.719596774595392 -53.7580189453553 0.00120468417423129 -46.7790750714085 0.66074837018833 -65.4493507778767 0.190959389708452 -105.131518954841 
                0.0610861211064944 -140.353905966147 0.0202160839874826 -170.930015749119 0.00660121403463684 163.446225666245 0.00180905442983859 135.874758377252 
                0.0012046841742313 -46.7790750714086 0.715438006725395 151.790819169056 0.00181328722494933 58.5165038898039 0.00656345480554038 85.7546785961368 
                0.0201283143267418 111.631871302847 0.060895070559923 142.324503938652 0.190569580381626 177.593242931514 0.65878033604268 -142.678534315899 
                0.660748370188326 -65.4493507778765 0.00181328722494933 58.5165038898041 0.683377948006152 109.758079438551 0.288019894933317 -0.182800528718626 
                0.0921624987145142 -35.3439411421705 0.0304678708466856 -65.7618521587729 0.00993480573794103 -91.2438204754496 0.00272275607508066 -118.787132279322 
                0.190959389708452 -105.131518954841 0.00656345480554033 85.754678596137  0.288019894933317 -0.182800528718605 0.86805894637445 102.850776069006 
                0.334010575418   5.88143759853635 0.106917536557937 -29.5696513209077 0.0350138682831342 -59.7929020712386 0.0098843079172713 -91.6330337138199 
                0.0610861211064942 -140.353905966147 0.0201283143267417 111.631871302847 0.0921624987145143 -35.3439411421705 0.334010575418   5.88143759853632 
                0.864007428171649 101.711243666817 0.338191208678411 5.3043892902817  0.107086417572039 -29.5935563117747 0.0303692840134578 -65.8874742125247 
                0.0202160839874826 -170.930015749119 0.0608950705599225 142.324503938652 0.0304678708466857 -65.761852158773 0.106917536557938 -29.5696513209077 
                0.338191208678412 5.30438929028162 0.863838765357759 101.702212958725 0.334544522582109 5.83394801353243 0.0919803233842494 -35.362408111152 
                0.00660121403463683 163.446225666245 0.190569580381624 177.593242931514 0.00993480573794107 -91.2438204754496 0.0350138682831343 -59.7929020712387 
                0.107086417572039 -29.5935563117747 0.33454452258211 5.83394801353241 0.867900621502095 102.738337447436 0.287779934591208 -0.157838058007485 
                0.0018090544298386 135.874758377252 0.658780336042681 -142.678534315899 0.00272275607508069 -118.787132279323 0.00988430791727139 -91.6330337138201 
                0.0303692840134581 -65.8874742125248 0.0919803233842504 -35.362408111152 0.287779934591212 -0.15783805800782 0.684137829927188 109.922913793186 
! Gamma         !               0.00141365577162918 0.95712108901382 0.00141379131489705 0.95712213946605 0.0032931330162407 0.959010467679953 0.00332105586971525 0.959045819290977 
!               0.00329404903985631 0.959012237221058 0.00329340074184323 0.959010845621785 0.00329317556556657 0.959010469122666 0.0033187520801132 0.959038198658143 
! Port Impedance30               0                30               0                30               0                30               0                
!               30               0                30               0                30               0                30               0                

0.0457                         0.719071675978109 -54.222199962996 0.00120031054557627 -47.6365688389468 0.661311305005329 -65.7358372390832 0.191003130242383 -105.487219607152 
                0.0610634301539326 -140.767892499303 0.0201947573071124 -171.390499139516 0.00658902135549363 162.951834313835 0.00180269913147515 135.40553802293  
                0.00120031054557628 -47.6365688389468 0.714907444977756 150.985508023347 0.00180707015053186 57.8818126231102 0.00655103998873397 85.1089008576419 
                0.020106391454735 111.003194359092 0.0608679405199209 141.740624423966 0.190603239443087 177.068876733055 0.65932508340504 -143.133616085615 
                0.661311305005324 -65.7358372390831 0.00180707015053185 57.8818126231102 0.682787980628492 109.650238897703 0.288129415861532 -0.309602200784289 
                0.092142040785479 -35.5289240412013 0.0304402650656202 -65.9936304439845 0.00991868795466503 -91.5042139333585 0.00271369950566322 -119.024473549469 
                0.191003130242382 -105.487219607152 0.00655103998873394 85.108900857642  0.288129415861532 -0.309602200784271 0.867911691555086 102.713652209891 
                0.334269575695222 5.74912819509004 0.106936817459967 -29.7610827739231 0.0349980287900634 -60.0266512738665 0.00986689626899786 -91.8782472171075 
                0.0610634301539322 -140.767892499303 0.020106391454735 111.003194359092 0.0921420407854789 -35.5289240412013 0.334269575695222 5.74912819509003 
                0.863811689376317 101.572677087045 0.338442991101462 5.1692940154136  0.107105269207816 -29.7848341079884 0.0303407341532576 -66.1165322760281 
                0.0201947573071123 -171.390499139516 0.0608679405199205 141.740624423966 0.0304402650656202 -65.9936304439844 0.106936817459968 -29.761082773923 
                0.338442991101463 5.16929401541351 0.863644062239635 101.563718158548 0.334802053211982 5.70193770097285 0.0919539196148682 -35.5470360762014 
                0.00658902135549362 162.951834313835 0.190603239443085 177.068876733056 0.00991868795466508 -91.5042139333584 0.0349980287900636 -60.0266512738664 
                0.107105269207817 -29.7848341079884 0.334802053211984 5.70193770097289 0.867759469154395 102.601107827193 0.287877864522944 -0.283120277706003 
                0.00180269913147516 135.40553802293  0.659325083405042 -143.133616085615 0.00271369950566324 -119.024473549469 0.00986689626899797 -91.878247217108 
                0.0303407341532579 -66.1165322760282 0.0919539196148693 -35.5470360762015 0.287877864522948 -0.283120277706367 0.683569331263147 109.816974978313 
! Gamma         !               0.00141520728953109 0.959218485564498 0.00141534397050777 0.959219537305158 0.00329675506654995 0.961109934911504 0.00332471357146499 0.9611453310493  
!               0.00329767271009014 0.961111707032544 0.00329702320071351 0.961110313302942 0.00329679763545803 0.961109936320651 0.00332240379478226 0.961137697669844 
! Port Impedance30               0                30               0                30               0                30               0                
!               30               0                30               0                30               0                30               0                

0.0458                         0.718547857036204 -54.6862413081292 0.00119591967317754 -48.4922101012808 0.661872103692481 -66.0221772140194 0.191046070615469 -105.842711084321 
                0.061040490536643 -141.181597510814 0.0201733693993907 -171.850491476921 0.00657671288779798 162.458608268406 0.00179633710772016 134.937388299875 
                0.00119591967317756 -48.4922101012812 0.71437783504177 150.180318572397 0.00180085458104579 57.2480118245243 0.00653861135665848 84.4630613347438 
                0.0200844805636682 110.374900703124 0.060840957391311 141.15709554887  0.190636822085688 176.544672710252 0.659868180696652 -143.588605831667 
                0.661872103692478 -66.0221772140193 0.00180085458104577 57.2480118245244 0.68219959656604 109.54250997624  0.288237868031484 -0.436203034271178 
                0.092121227160585 -35.7136326428531 0.0304125598335199 -66.2249407516582 0.00990249853192644 -91.7641273920072 0.00270464375837629 -119.261161842426 
                0.191046070615468 -105.842711084321 0.00653861135665842 84.463061334744  0.288237868031484 -0.436203034271145 0.867765401231079 102.576619997375 
                0.334527319540742 5.61695140959865 0.106955602777241 -29.9523229539861 0.0349820169055123 -60.2602029363674 0.0098494635049165 -92.1236957346049 
                0.0610404905366427 -141.181597510814 0.020084480563668 110.374900703124 0.092121227160585 -35.7136326428531 0.334527319540742 5.61695140959866 
                0.863616889395726 101.434219388602 0.338693401491853 5.03433397460513 0.107123689482644 -29.9759580210975 0.0303122506410868 -66.345260816321 
                0.0201733693993906 -171.850491476921 0.0608409573913107 141.15709554887  0.0304125598335199 -66.2249407516582 0.106955602777241 -29.9523229539862 
                0.338693401491853 5.03433397460503 0.863450151176363 101.425329159835 0.335058555387466 5.57000653041436 0.0919279754979949 -35.7313833932953 