! Touchstone file exported from HFSS 2022.2.0
!        File:           /home/arthur/Ansoft/PersonalLib/TOMAS_plasma_box.aedt
!        Generated:      5:05:00 PM  Nov 07, 2023
!        Design:         HFSSDesign9
!        Project:        TOMAS_plasma_box
!        Setup:          Setup1
!        Solution:       Sweep
!
! Variables:
!        offset = 1.25cm
!        r_diel = 210mm
!
# GHz S MA R 50.000000
! Terminal data exported
! Port[1] = 1
! Port[2] = 2
0.01                           0.99330982043372 168.941190135246 0.112274517898682 75.5330818419925 0.11233818813291 75.5137208861884 0.992375620687802 162.790303626006 
! Gamma         0                0.209584502215678 0                0.209584502192288 
! Port Impedance         50               0                50               0                
0.0101125                      0.993160955101358 168.817950844027 0.113506544246884 75.3714288195003 0.113571983615961 75.351836653642  0.992204936817512 162.598651896083 
! Gamma         0                0.211942327865124 0                0.211942327841868 
! Port Impedance         50               0                50               0                
0.010225                       0.993010593181423 168.694748883672 0.114737592614784 75.2098702987491 0.114804819206253 75.1900343697523 0.992032606008755 162.40706213706  
! Gamma         0                0.214300153514576 0                0.214300153491449 
! Port Impedance         50               0                50               0                
0.0103375                      0.992858739609713 168.571584569417 0.115967655236033 75.0484061606755 0.116036686639656 75.0283141475533 0.991858635717444 162.215534853383 
! Gamma         0                0.216657979164032 0                0.216657979141033 
! Port Impedance         50               0                50               0                
0.01045                        0.992705399344196 168.448458213985 0.117196724416904 74.8870362997818 0.117267577717396 74.8666761108629 0.991683033420835 162.024070544868 
! Gamma         0                0.219015804813493 0                0.219015804790618 
! Port Impedance         50               0                50               0                
0.0105625                      0.992550577364331 168.325370127597 0.118424792535865 74.7257606230032 0.118497484306091 74.7051203933596 0.991505806616235 161.832669706715 
! Gamma         0                0.221373630462959 0                0.221373630440204 
! Port Impedance         50               0                50               0                
0.010675                       0.992394278670402 168.202320617976 0.119651852043126 74.5645790486564 0.119726398337778 74.5436471377218 0.991326962819729 161.641332829521 
! Gamma         0                0.223731456112429 0                0.223731456089792 
! Port Impedance         50               0                50               0                
0.0107875                      0.992236508282862 168.079309990354 0.120877895460191 74.4034915054619 0.120954311809925 74.3822564948216 0.991146509564919 161.450060399304 
! Gamma         0                0.226089281761904 0                0.226089281739381 
! Port Impedance         50               0                50               0                
0.0109                         0.992077271241681 167.956338547485 0.12210291537938 74.2424979316354 0.12218121678543 74.2209486229716 0.990964454401684 161.258852897516 
! Gamma         0                0.228447107411382 0                0.228447107388972 
! Port Impedance         50               0                50               0                
0.0110125                      0.991916572605706 167.833406589651 0.12332690446335 74.0815982740442 0.123407105392603 74.0597236872196 0.990780804894948 161.067710801064 
! Gamma         0                0.230804933060865 0                0.230804933038564 
! Port Impedance         50               0                50               0                
0.011125                       0.991754417452024 167.71051441467  0.124549855444608 73.9207924874221 0.124631969825144 73.898581858689  0.990595568623472 160.876634582329 
! Gamma         0                0.233162758710351 0                0.233162758688158 
! Port Impedance         50               0                50               0                
0.0112375                      0.991590810875349 167.587662317909 0.125771761124999 73.7600805336408 0.125855802342103 73.7375233139608 0.990408753178661 160.685624709192 
! Gamma         0                0.235520584359842 0                0.235520584337753 
! Port Impedance         50               0                50               0                
0.01135                        0.991425757987392 167.464850592292 0.126992614375205 73.5994623810323 0.127078595267824 73.576548234495  0.990220366163383 160.494681645048 
! Gamma         0                0.237878410009336 0                0.23787840998735 
! Port Impedance         50               0                50               0                
0.0114625                      0.991259263916266 167.342079528313 0.128212408134215 73.4389380037596 0.128300340991889 73.4156568060885 0.990030415190814 160.303805848836 
! Gamma         0                0.240236235658833 0                0.240236235636947 
! Port Impedance         50               0                50               0                
0.011575                       0.991091333805878 167.219349414044 0.129431135408801 73.2785073812321 0.129521031969034 73.2548492183672 0.98983890788329 160.112997775062 
! Gamma         0                0.242594061308334 0                0.242594061286547 
! Port Impedance         50               0                50               0                
0.0116875                      0.990921972815354 167.096660535151 0.130648789272981 73.1181704975635 0.130740660719072 73.0941256643102 0.989645851871186 159.92225787382  
! Gamma         0                0.244951886957839 0                0.244951886936147 
! Port Impedance         50               0                50               0                
0.0118                         0.990751186118446 166.9740131749   0.131865362867472 72.9579273410669 0.131959219826787 72.9334863398033 0.989451254791809 159.731586590821 
! Gamma         0                0.247309712607346 0                0.247309712585749 
! Port Impedance         50               0                50               0                
0.0119125                      0.99057897890297 166.851407614173 0.133080849399143 72.7977779037883 0.133176701941828 72.7729314432211 0.989255124288306 159.54098436742  
! Gamma         0                0.249667538256857 0                0.249667538235352 
! Port Impedance         50               0                50               0                
0.012025                       0.99040535637024 166.728844131483 0.134295242140456 72.6377221810726 0.134393099778588 72.6124611750348 0.989057468008596 159.350451640639 
! Gamma         0                0.252025363906371 0                0.252025363884956 
! Port Impedance         50               0                50               0                
0.0121375                      0.99023032373452 166.606323002979 0.135508534428905 72.477760171162  0.135608406116078 72.4520757374451 0.988858293604317 159.159988843201 
! Gamma         0                0.254383189555888 0                0.254383189534562 
! Port Impedance         50               0                50               0                
0.01225                        0.990053886222478 166.483844502469 0.136720719666445 72.3178918748234 0.136822613797777 72.291775334037  0.98865760872979 158.969596403554 
! Gamma         0                0.256741015205407 0                0.256741015184169 
! Port Impedance         50               0                50               0                
0.0123625                      0.989876049072654 166.361408901425 0.137931791318929 72.158117295004  0.138035715731489 72.1315601694574 0.988455421041005 158.779274745902 
! Gamma         0                0.25909884085493 0                0.259098840833777 
! Port Impedance         50               0                50               0                
0.012475                       0.989696817534936 166.239016469001 0.139141742915523 71.9984364365126 0.139247704889178 71.9714304491124 0.988251738194624 158.589024290234 
! Gamma         0                0.261456666504455 0                0.261456666483387 
! Port Impedance         50               0                50               0                
0.0125875                      0.989516196870044 166.116667472048 0.140350568048136 71.8388493057249 0.140458574306797 71.8113863788834 0.988046567847002 158.398845452358 
! Gamma         0                0.263814492153983 0                0.263814492132997 
! Port Impedance         50               0                50               0                
0.0127                         0.989334192349027 165.994362175125 0.14155826037083 71.6793559103114 0.141668317084111 71.6514281648616 0.987839917653229 158.208738643926 
! Gamma         0                0.266172317803513 0                0.266172317782609 
! Port Impedance         50               0                50               0                
0.0128125                      0.989150809252761 165.872100840517 0.142764813599242 71.519956258987  0.142876926384502 71.4915560130988 0.987631795266187 158.018704272474 
! Gamma         0                0.268530143453046 0                0.268530143432222 
! Port Impedance         50               0                50               0                
0.012925                       0.98896605287147 165.749883728247 0.143970221509998 71.3606503612792 0.144084395434775 71.3317701293747 0.987422208335633 157.828742741448 
! Gamma         0                0.270887969102581 0                0.270887969081837 
! Port Impedance         50               0                50               0                
0.0130375                      0.988779928504241 165.627711096092 0.145174477940119 71.2014382273163 0.145290717524949 71.1720707189788 0.987211164507289 157.638854450238 
! Gamma         0                0.273245794752119 0                0.273245794731452 
! Port Impedance         50               0                50               0                
0.01315                        0.98859244145856 165.505583199598 0.146377576786443 71.0423198676321 0.146495886008043 71.0124579865057 0.986998671421968 157.449039794215 
! Gamma         0                0.275603620401659 0                0.275603620381068 
! Port Impedance         50               0                50               0                
0.0132625                      0.988403597049852 165.383500292097 0.147579512005025 70.8832952929865 0.147699894299848 70.852932135665  0.986784736714699 157.25929916476  
! Gamma         0                0.277961446051201 0                0.277961446030686 
! Port Impedance         50               0                50               0                
0.013375                       0.988213400601029 165.261462624721 0.148780277610558 70.7243645142018 0.148902735878697 70.6934933691023 0.98656936801389 157.069632949301 
! Gamma         0                0.280319271700745 0                0.280319271680305 
! Port Impedance         50               0                50               0                
0.0134875                      0.988021857442053 165.139470446416 0.149979867675775 70.5655275420136 0.150104404285228 70.5341418882334 0.986352572940495 156.88004153135  
! Gamma         0                0.282677097350292 0                0.282677097329925 
! Port Impedance         50               0                50               0                
0.0136                         0.987828972909499 165.017524003962 0.151178276330866 70.406784386934  0.151304893122132 70.3748778930881 0.986134359107213 156.690525290532 
! Gamma         0                0.28503492299984 0                0.285034922979546 
! Port Impedance         50               0                50               0                
0.0137125                      0.987634752346138 164.895623541986 0.152375497762892 70.2481350591279 0.152504196053899 70.2157015821657 0.985914734117691 156.501084602627 
! Gamma         0                0.287392748649391 0                0.287392748629169 
! Port Impedance         50               0                50               0                
0.013825                       0.987439201100519 164.77376930298  0.153571526215194 70.089579568301  0.153702306806559 70.0566131522999 0.985693705565759 156.311719839601 
! Gamma         0                0.289750574298943 0                0.289750574278792 
! Port Impedance         50               0                50               0                
0.0139375                      0.987242324526567 164.651961527313 0.154766355986812 69.9311179235983 0.15489921916741 69.8976127985333 0.98547128103468 156.122431369646 
! Gamma         0                0.292108399948497 0                0.292108399928417 
! Port Impedance         50               0                50               0                
0.01405                        0.987044127983187 164.530200453255 0.155959981431904 69.772750133513  0.156094926984744 69.7387007140006 0.985247468096413 155.933219557214 
! Gamma         0                0.294466225598053 0                0.294466225578042 
! Port Impedance         50               0                50               0                
0.0141625                      0.986844616833873 164.408486316986 0.157152396959162 69.614476205805  0.157289424167564 69.5798770898201 0.985022274310902 155.744084763053 
! Gamma         0                0.296824051247612 0                0.296824051227669 
! Port Impedance         50               0                50               0                
0.014275                       0.986643796446337 164.286819352615 0.158343597031242 69.4562961474284 0.158482704685298 69.4211421149933 0.984795707225382 155.555027344248 
! Gamma         0                0.299181876897171 0                0.299181876877297 
! Port Impedance         50               0                50               0                
0.0143875                      0.986441672192134 164.1651997922   0.159533576164182 69.298209964467  0.159674762567501 69.2624959763125 0.9845677743737  155.366047654255 
! Gamma         0                0.301539702546733 0                0.301539702526926 
! Port Impedance         50               0                50               0                
0.0145                         0.986238249446303 164.043627865759 0.160722328926839 69.1402176620778 0.160865591903561 69.1039388582742 0.984338483275655 155.177146042938 
! Gamma         0                0.303897528196296 0                0.303897528176556 
! Port Impedance         50               0                50               0                
0.0146125                      0.986033533587014 163.922103801289 0.161909849940316 68.9823192444416 0.162055186842387 68.9454709430007 0.984107841436362 154.98832285661  
! Gamma         0                0.306255353845861 0                0.306255353826187 
! Port Impedance         50               0                50               0                
0.014725                       0.985827529995224 163.800627824786 0.163096133877405 68.8245147147209 0.163243541592105 68.7870924101671 0.983875856345629 154.799578438068 
! Gamma         0                0.308613179495427 0                0.308613179475819 
! Port Impedance         50               0                50               0                
0.0148375                      0.985620244054342 163.679200160256 0.164281175462022 68.6668040750235 0.164430650419736 68.6288034369347 0.983642535477348 154.610913126631 
! Gamma         0                0.310971005144995 0                0.310971005125452 
! Port Impedance         50               0                50               0                
0.01495                        0.985411681149903 163.557821029735 0.165464969468656 68.5091873263721 0.16561650765088 68.4706041978903 0.983407886288918 154.422327258179 
! Gamma         0                0.313328830794564 0                0.313328830775086 
! Port Impedance         50               0                50               0                
0.0150625                      0.985201846669242 163.436490653307 0.166647510721822 68.3516644686797 0.166801107669388 68.3124948649901 0.983171916220665 154.233821165192 
! Gamma         0                0.315686656444135 0                0.315686656424722 
! Port Impedance         50               0                50               0                
0.015175                       0.984990746001195 163.315209249117 0.167828794095508 68.1942355007301 0.167984444917036 68.1544756075102 0.982934632695301 154.045395176786 
! Gamma         0                0.318044482093707 0                0.318044482074358 
! Port Impedance         50               0                50               0                
0.0152875                      0.984778384535781 163.19397703339  0.169008814512643 68.0369004201627 0.169166513893185 67.9965465920005 0.982696043117386 153.857049618754 
! Gamma         0                0.320402307743281 0                0.320402307723995 
! Port Impedance         50               0                50               0                
0.0154                         0.984564767663919 163.072794220449 0.170187566944559 67.8796592234622 0.17034730915445 67.838707982244  0.982456154872811 153.668784813601 
! Gamma         0                0.322760133392856 0                0.322760133373634 
! Port Impedance         50               0                50               0                
0.0155125                      0.984349900777133 162.951661022729 0.17136504641046 67.7225119059519 0.171526825314352 67.6809599392204 0.982214975328301 153.480601080586 
! Gamma         0                0.325117959042432 0                0.325117959023274 
! Port Impedance         50               0                50               0                
0.015625                       0.984133789267275 162.830577650794 0.172541247976902 67.5654584617918 0.172705057042976 67.5233026210739 0.981972511830928 153.292498735758 
! Gamma         0                0.32747578469201 0                0.327475784672914 
! Port Impedance         50               0                50               0                
0.0157375                      0.983916438526249 162.709544313356 0.173716166757274 67.4084988839786 0.173881999066624 67.3657361830842 0.981728771707651 153.104478091995 
! Gamma         0                0.329833610341588 0                0.329833610322556 
! Port Impedance         50               0                50               0                
0.01585                        0.983697853945752 162.58856121729  0.174889797911284 67.2516331643505 0.175057646167458 67.2082607776428 0.981483762264865 152.916539459043 
! Gamma         0                0.332191435991168 0                0.332191435972198 
! Port Impedance         50               0                50               0                
0.0159625                      0.983478040917009 162.467628567649 0.176062136644456 67.0948612935942 0.176231993183149 67.050876554231  0.981237490787963 152.728683143554 
! Gamma         0                0.33454926164075 0                0.334549261621842 
! Port Impedance         50               0                50               0                
0.016075                       0.983257004830526 162.346746567683 0.177233178207629 66.9381832612549 0.177405035006517 66.8935836594027 0.980989964540925 152.540909449123 
! Gamma         0                0.336907087290332 0                0.336907087271487 
! Port Impedance         50               0                50               0                
0.0161875                      0.983034751075846 162.225915418855 0.178402917896463 66.7815990557483 0.17857676658517 66.7363822367697 0.980741190765915 152.353218676329 
! Gamma         0                0.339264912939916 0                0.339264912921132 
! Port Impedance         50               0                50               0                
0.0163                         0.982811285041312 162.105135320855 0.179571351050955 66.625108664376  0.179747182921145 66.5792724269899 0.980491176682895 152.165611122768 
! Gamma         0                0.341622738589501 0                0.341622738570779 
! Port Impedance         50               0                50               0                
0.0164125                      0.982586612113836 161.984406471619 0.180738473054955 66.4687120733419 0.180916279070537 66.4222543677591 0.980239929489253 151.978087083098 
! Gamma         0                0.343980564239087 0                0.343980564220427 
! Port Impedance         50               0                50               0                
0.016525                       0.982360737678675 161.863729067343 0.181904279335695 66.3124092677714 0.182084050143137 66.2653281938044 0.979987456359453 151.790646849071 
! Gamma         0                0.346338389888673 0                0.346338389870076 
! Port Impedance         50               0                50               0                
0.0166375                      0.982133667119216 161.7431033025   0.183068765363322 66.1562002317317 0.183250491302057 66.1084940368812 0.979733764444692 151.603290709573 
! Gamma         0                0.348696215538261 0                0.348696215519725 
! Port Impedance         50               0                50               0                
0.01675                        0.981905405816765 161.622529369856 0.184231926650435 66.0000849482542 0.184415597763363 65.9517520257723 0.979478860872573 151.416018950661 
! Gamma         0                0.35105404118785 0                0.351054041169376 
! Port Impedance         50               0                50               0                
0.0168625                      0.981675959150343 161.502007460487 0.185393758751638 65.844063399358  0.185579364795704 65.7951022862885 0.9792227527468  151.228831855602 
! Gamma         0                0.35341186683744 0                0.353411866819028 
! Port Impedance         50               0                50               0                
0.016975                       0.981445332496487 161.381537763791 0.186554257263085 65.6881355660748 0.186741787719931 65.6385449412732 0.978965447146877 151.041729704908 
! Gamma         0                0.355769692487031 0                0.355769692468681 
! Port Impedance         50               0                50               0                
0.0170875                      0.981213531229059 161.261120467506 0.187713417822049 65.5323014284754 0.187902861908727 65.4820801106068 0.97870695112783 150.854712776373 
! Gamma         0                0.358127518136623 0                0.358127518118334 
! Port Impedance         50               0                50               0                
0.0172                         0.980980560719059 161.140755757727 0.188871236106484 65.3765609656959 0.18906258278623 65.3257079112151 0.978447271719933 150.667781345113 
! Gamma         0                0.360485343786216 0                0.360485343767989 
! Port Impedance         50               0                50               0                
0.0173125                      0.980746426334447 161.020443818917 0.190027707834606 65.2209141559668 0.190220945827654 65.1694284570779 0.97818641592846 150.480935683599 
! Gamma         0                0.36284316943581 0                0.362843169417645 
! Port Impedance         50               0                50               0                
0.017425                       0.980511133439966 160.900184833928 0.191182828764465 65.0653609766408 0.191377946558912 65.0132418592408 0.97792439073344 150.294176061693 
! Gamma         0                0.365200995085404 0                0.365200995067302 
! Port Impedance         50               0                50               0                
0.0175375                      0.980274687396974 160.779978984011 0.192336594693546 64.9099014042229 0.192533580556236 64.8571482258272 0.97766120308943 150.107502746689 
! Gamma         0                0.367558820735   0                0.367558820716959 
! Port Impedance         50               0                50               0                
0.01765                        0.98003709356328 160.659826448831 0.193489001458355 64.7545354144003 0.193687843445798 64.7011476620531 0.977396859925299 149.920916003343 
! Gamma         0                0.369916646384596 0                0.369916646366618 
! Port Impedance         50               0                50               0                
0.0177625                      0.97979835729299 160.539727406487 0.19464004493403 64.5992629820726 0.19484073090333 64.5452402702425 0.977131368144026 149.734416093913 
! Gamma         0                0.372274472034193 0                0.372274472016278 
! Port Impedance         50               0                50               0                
0.017875                       0.979558483936345 160.41968203352  0.195789721033945 64.4440840813832 0.195992238653745 64.3894261498448 0.97686473462251 149.548003278192 
! Gamma         0                0.374632297683791 0                0.374632297665939 
! Port Impedance         50               0                50               0                
0.0179875                      0.979317478839582 160.299690504932 0.196938025709333 64.28899868575   0.197142362470757 64.2337053974529 0.976596966211393 149.361677813544 
! Gamma         0                0.37699012333339 0                0.3769901233156  
! Port Impedance         50               0                50               0                
0.0181                         0.979075347344787 160.179752994198 0.198084954948909 64.1340067678972 0.1982910981765  64.0780781068228 0.976328069734891 149.175439954936 
! Gamma         0                0.379347948982989 0                0.379347948965263 
! Port Impedance         50               0                50               0                
0.0182125                      0.978832094789754 160.059869673283 0.199230504778499 63.9791082998867 0.199438441641145 63.9225443688946 0.976058051990645 148.989289954979 
! Gamma         0                0.38170577463259 0                0.381705774614927 
! Port Impedance         50               0                50               0                
0.018325                       0.978587726507859 159.94004071265  0.200374671260684 63.8243032531498 0.200584388782529 63.7671042718144 0.975786919749571 148.803228063956 
! Gamma         0                0.384063600282191 0                0.384063600264591 
! Port Impedance         50               0                50               0                
0.0184375                      0.978342247827923 159.820266281282 0.201517450494441 63.6695915985188 0.201728935565768 63.6117579009566 0.975514679755735 148.617254529857 
! Gamma         0                0.386421425931793 0                0.386421425914257 
! Port Impedance         50               0                50               0                
0.01855                        0.978095664074093 159.70054654669  0.202658838614802 63.514973306259  0.202872078002882 63.4565053389481 0.975241338726227 148.431369598416 
! Gamma         0                0.388779251581395 0                0.388779251563924 
! Port Impedance         50               0                50               0                
0.0186625                      0.977847980565719 159.580881674926 0.203798831792508 63.3604483460996 0.204013812152414 63.3013466656931 0.974966903351055 148.245573513139 
! Gamma         0                0.391137077230998 0                0.391137077213591 
! Port Impedance         50               0                50               0                
0.018775                       0.977599202617237 159.461271830601 0.204937426233681 63.2060166872655 0.205154134119058 63.146281958398  0.974691380293043 148.059866515343 
! Gamma         0                0.393494902880602 0                0.39349490286326 
! Port Impedance         50               0                50               0                
0.0188875                      0.977349335538062 159.341717176893 0.206074618179492 63.0516782985084 0.206293040053279 62.9913112915984 0.97441477618774 147.874248844182 
! Gamma         0                0.395852728530207 0                0.395852728512929 
! Port Impedance         50               0                50               0                
0.019                          0.977098384632475 159.222217875566 0.20721040390585 62.8974331481379 0.207430526150937 62.836434737185  0.974137097643347 147.688720736686 
! Gamma         0                0.398210554179812 0                0.3982105541626  
! Port Impedance         50               0                50               0                
0.0191125                      0.976846355199521 159.102774086977 0.208344779723083 62.7432812040518 0.208566588652916 62.6816523644324 0.973858351240638 147.503282427785 
! Gamma         0                0.400568379829417 0                0.400568379812271 
! Port Impedance         50               0                50               0                
0.019225                       0.976593252532911 158.98338597009  0.209477741975635 62.5892224337665 0.209701223844748 62.5269642400264 0.973578543532909 147.317934150348 
! Gamma         0                0.402926205479024 0                0.402926205461944 
! Port Impedance         50               0                50               0                
0.0193375                      0.976339081920918 158.864053682491 0.210609287041767 62.4352568044473 0.210834428056245 62.3723704280931 0.97329768104592 147.132676135211 
! Gamma         0                0.405284031128631 0                0.405284031111617 