! TOUCHSTONE file generated by CST MICROWAVE STUDIO
! Date and time: Mon Jan 20 14:14:46 2020
! Project name: 4pj-L4PJ=403mm-lossy.cst
! Parameters = {rblend_outter_port=40; H_4PJ=915; H_VCW=515; H_septa=30; L_4PJ=355.63; L_4PJ_MV=405.26; L_4PJ_port=317.5; L_fdr=200; L_front_gap=32.13; L_rear_gap=17.5; R_4PJ=117.5; R_body=25; W_4PJ=315; W_VCW=315; W_gap=25; rblend_outer1=15; xH_fdr_outer=285; xR_VCW_inner=132.5; xR_fdr_inner=125; xW_4PJ_inner=265; xW_inner_split=15; xW_outer_split=80}
! Header version: 2018
! Port assignment regex: !\s*Touchstone port\s*([0-9]+)\s*=\s*(CST MWS port|CST DS port)\s*([0-9]+|Zmin|Zmax)\s*\(\"(.*)\"\)(\s*mode\s*([0-9]+))?.*
! Touchstone port assignment:
! Touchstone port 1 = CST MWS port 1 ("")
! Touchstone port 2 = CST MWS port 2 ("")
! Touchstone port 3 = CST MWS port 3 ("")
! Touchstone port 4 = CST MWS port 4 ("")
! S-Parameters are not renormalized. Unphysical impedance of 0 will be written to the file.
# MHz S MA R 0
35                      0.438536         160.773         0.542995         -16.533         0.568449        -32.8462         0.435555        -18.6249
                        0.542995         -16.533         0.473116         179.874         0.542996        -16.5329         0.431825        -19.5221
                        0.568449        -32.8462         0.542995        -16.5329         0.438536         160.773         0.435555        -18.6249
                        0.435555        -18.6249         0.431825        -19.5221         0.435555        -18.6249         0.658871         170.719
35.025                  0.438527         160.759         0.542977        -16.5449         0.568467        -32.8701         0.435562        -18.6384
                        0.542977        -16.5449         0.473156         179.873         0.542977        -16.5449         0.431827        -19.5362
                        0.568467        -32.8701         0.542977        -16.5449         0.438527         160.759         0.435562        -18.6384
                        0.435562        -18.6384         0.431827        -19.5363         0.435562        -18.6384          0.65886         170.712
35.05                   0.438518         160.744         0.542959        -16.5569         0.568486         -32.894          0.43557        -18.6519
                        0.542959        -16.5569         0.473196         179.872         0.542959        -16.5568          0.43183        -19.5504
                        0.568486         -32.894         0.542959        -16.5568         0.438518         160.744          0.43557        -18.6519
                         0.43557        -18.6519         0.431829        -19.5504          0.43557        -18.6519         0.658848         170.706
35.075                  0.438509          160.73          0.54294        -16.5688         0.568505        -32.9178         0.435577        -18.6654
                         0.54294        -16.5688         0.473236          179.87         0.542941        -16.5688         0.431832        -19.5646
                        0.568504        -32.9178          0.54294        -16.5687         0.438509          160.73         0.435577        -18.6654
                        0.435577        -18.6654         0.431831        -19.5646         0.435577        -18.6654         0.658837         170.699
35.1                      0.4385         160.715         0.542922        -16.5808         0.568523        -32.9417         0.435585        -18.6789
                        0.542922        -16.5808         0.473276         179.869         0.542922        -16.5807         0.431834        -19.5788
                        0.568523        -32.9417         0.542922        -16.5807           0.4385         160.716         0.435585        -18.6789
                        0.435585        -18.6789         0.431833        -19.5788         0.435585        -18.6789         0.658826         170.693
35.125                  0.438491         160.701         0.542903        -16.5927         0.568542        -32.9655         0.435592        -18.6924
                        0.542904        -16.5927         0.473317         179.868         0.542904        -16.5926         0.431836         -19.593
                        0.568542        -32.9655         0.542903        -16.5926         0.438491         160.701         0.435592        -18.6924
                        0.435592        -18.6924         0.431836         -19.593         0.435592        -18.6924         0.658814         170.686
35.15                   0.438482         160.687         0.542885        -16.6047          0.56856        -32.9894           0.4356        -18.7059
                        0.542885        -16.6047         0.473357         179.866         0.542885        -16.6046         0.431838        -19.6071
                         0.56856        -32.9894         0.542885        -16.6046         0.438482         160.687           0.4356        -18.7059
                          0.4356        -18.7059         0.431838        -19.6071           0.4356        -18.7059         0.658803          170.68
35.175                  0.438473         160.672         0.542866        -16.6166         0.568579        -33.0133         0.435607        -18.7194
                        0.542867        -16.6166         0.473397         179.865         0.542867        -16.6165          0.43184        -19.6213
                        0.568579        -33.0133         0.542867        -16.6165         0.438473         160.672         0.435607        -18.7194
                        0.435607        -18.7194          0.43184        -19.6213         0.435607        -18.7194         0.658792         170.673
35.2                    0.438464         160.658         0.542848        -16.6285         0.568598        -33.0371         0.435615        -18.7329
                        0.542849        -16.6286         0.473437         179.864         0.542849        -16.6285         0.431842        -19.6355
                        0.568598        -33.0371         0.542848        -16.6285         0.438464         160.658         0.435615        -18.7329
                        0.435615        -18.7329         0.431842        -19.6355         0.435615        -18.7329         0.658781         170.667
35.225                  0.438456         160.643          0.54283        -16.6405         0.568617         -33.061         0.435623        -18.7463
                         0.54283        -16.6405         0.473478         179.863          0.54283        -16.6404         0.431844        -19.6497
                        0.568616         -33.061          0.54283        -16.6404         0.438455         160.643         0.435623        -18.7463
                        0.435622        -18.7463         0.431844        -19.6497         0.435623        -18.7464         0.658769          170.66
35.25                   0.438447         160.629         0.542811        -16.6524         0.568635        -33.0849          0.43563        -18.7598
                        0.542812        -16.6524         0.473518         179.861         0.542812        -16.6524         0.431846        -19.6639
                        0.568635        -33.0849         0.542811        -16.6524         0.438447         160.629          0.43563        -18.7598
                         0.43563        -18.7598         0.431846        -19.6638          0.43563        -18.7598         0.658758         170.654
35.275                  0.438438         160.615         0.542793        -16.6644         0.568654        -33.1087         0.435638        -18.7733
                        0.542793        -16.6644         0.473558          179.86         0.542793        -16.6643         0.431848         -19.678
                        0.568654        -33.1087         0.542793        -16.6643         0.438438         160.615         0.435638        -18.7733
                        0.435638        -18.7733         0.431848         -19.678         0.435638        -18.7733         0.658746         170.647
35.3                    0.438429           160.6         0.542774        -16.6763         0.568673        -33.1326         0.435645        -18.7868
                        0.542775        -16.6763         0.473599         179.859         0.542775        -16.6763          0.43185        -19.6922
                        0.568673        -33.1326         0.542774        -16.6762         0.438429           160.6         0.435645        -18.7868
                        0.435645        -18.7868          0.43185        -19.6922         0.435645        -18.7868         0.658735         170.641
35.325                   0.43842         160.586         0.542755        -16.6883         0.568692        -33.1565         0.435653        -18.8003
                        0.542756        -16.6883         0.473639         179.857         0.542756        -16.6882         0.431852        -19.7064
                        0.568691        -33.1565         0.542756        -16.6882          0.43842         160.586         0.435653        -18.8003
                        0.435653        -18.8003         0.431852        -19.7064         0.435653        -18.8003         0.658724         170.634
35.35                   0.438411         160.571         0.542737        -16.7002          0.56871        -33.1803          0.43566        -18.8138
                        0.542738        -16.7002          0.47368         179.856         0.542738        -16.7002         0.431854        -19.7206
                         0.56871        -33.1803         0.542737        -16.7001         0.438411         160.571          0.43566        -18.8138
                         0.43566        -18.8138         0.431854        -19.7206          0.43566        -18.8138         0.658712         170.628
35.375                  0.438402         160.557         0.542718        -16.7122         0.568729        -33.2042         0.435668        -18.8273
                        0.542719        -16.7122          0.47372         179.855         0.542719        -16.7121         0.431856        -19.7348
                        0.568729        -33.2042         0.542718        -16.7121         0.438402         160.557         0.435668        -18.8273
                        0.435668        -18.8273         0.431856        -19.7348         0.435668        -18.8273         0.658701         170.621
35.4                    0.438392         160.542           0.5427        -16.7241         0.568748        -33.2281         0.435676        -18.8408
                        0.542701        -16.7241         0.473761         179.853         0.542701        -16.7241         0.431858         -19.749
                        0.568748        -33.2281           0.5427         -16.724         0.438393         160.543         0.435676        -18.8408
                        0.435675        -18.8408         0.431858        -19.7489         0.435676        -18.8408          0.65869         170.615
35.425                  0.438383         160.528         0.542681        -16.7361         0.568767        -33.2519         0.435683        -18.8543
                        0.542682        -16.7361         0.473801         179.852         0.542682         -16.736          0.43186        -19.7631
                        0.568767        -33.2519         0.542681         -16.736         0.438384         160.528         0.435683        -18.8543
                        0.435683        -18.8543          0.43186        -19.7631         0.435683        -18.8543         0.658678         170.609
35.45                   0.438374         160.514         0.542663         -16.748         0.568786        -33.2758         0.435691        -18.8678
                        0.542664         -16.748         0.473842         179.851         0.542664         -16.748         0.431863        -19.7773
                        0.568785        -33.2758         0.542663        -16.7479         0.438374         160.514         0.435691        -18.8678
                        0.435691        -18.8678         0.431862        -19.7773         0.435691        -18.8678         0.658667         170.602
35.475                  0.438365         160.499         0.542644          -16.76         0.568805        -33.2997         0.435698        -18.8813
                        0.542645          -16.76         0.473882         179.849         0.542645        -16.7599         0.431865        -19.7915
                        0.568804        -33.2997         0.542644        -16.7599         0.438365         160.499         0.435698        -18.8813
                        0.435698        -18.8813         0.431864        -19.7915         0.435698        -18.8813         0.658655         170.596
35.5                    0.438356         160.485         0.542625        -16.7719         0.568823        -33.3236         0.435706        -18.8948
                        0.542626        -16.7719         0.473923         179.848         0.542626        -16.7719         0.431867        -19.8057
                        0.568823        -33.3236         0.542625        -16.7718         0.438356         160.485         0.435706        -18.8948
                        0.435706        -18.8948         0.431866        -19.8057         0.435706        -18.8948         0.658644         170.589
35.525                  0.438347          160.47         0.542607        -16.7839         0.568842        -33.3474         0.435714        -18.9083
                        0.542608        -16.7839         0.473963         179.847         0.542608        -16.7838         0.431869        -19.8199
                        0.568842        -33.3474         0.542607        -16.7838         0.438347          160.47         0.435714        -18.9083
                        0.435714        -18.9083         0.431868        -19.8199         0.435714        -18.9083         0.658633         170.583
35.55                   0.438338         160.456         0.542588        -16.7958         0.568861        -33.3713         0.435721        -18.9218
                        0.542589        -16.7958         0.474004         179.845         0.542589        -16.7958         0.431871        -19.8341
                        0.568861        -33.3713         0.542588        -16.7957         0.438338         160.456         0.435721        -18.9218
                        0.435721        -18.9218          0.43187         -19.834         0.435721        -18.9218         0.658621         170.576
35.575                  0.438329         160.441         0.542569        -16.8078          0.56888        -33.3952         0.435729        -18.9353
                        0.542571        -16.8078         0.474045         179.844         0.542571        -16.8077         0.431873        -19.8483
                         0.56888        -33.3952          0.54257        -16.8077         0.438329         160.441         0.435729        -18.9353
                        0.435729        -18.9353         0.431872        -19.8482         0.435729        -18.9353          0.65861          170.57
35.6                     0.43832         160.427         0.542551        -16.8197         0.568899        -33.4191         0.435736        -18.9488
                        0.542552        -16.8197         0.474085         179.843         0.542552        -16.8197         0.431875        -19.8625
                        0.568899        -33.4191         0.542551        -16.8196          0.43832         160.427         0.435736        -18.9488
                        0.435736        -18.9488         0.431874        -19.8624         0.435736        -18.9488         0.658598         170.563
35.625                  0.438311         160.412         0.542532        -16.8317         0.568918         -33.443         0.435744        -18.9623
                        0.542533        -16.8317         0.474126         179.841         0.542533        -16.8316         0.431877        -19.8766
                        0.568918         -33.443         0.542532        -16.8316         0.438311         160.413         0.435744        -18.9623
                        0.435744        -18.9623         0.431876        -19.8766         0.435744        -18.9623         0.658587         170.557
35.65                   0.438302         160.398         0.542513        -16.8436         0.568937        -33.4668         0.435752        -18.9758
                        0.542515        -16.8436         0.474167          179.84         0.542515        -16.8436         0.431879        -19.8908
                        0.568937        -33.4668         0.542513        -16.8435         0.438302         160.398         0.435752        -18.9758
                        0.435752        -18.9758         0.431878        -19.8908         0.435752        -18.9758         0.658575          170.55
35.675                  0.438293         160.384         0.542495        -16.8556         0.568956        -33.4907         0.435759        -18.9893
                        0.542496        -16.8556         0.474208         179.839         0.542496        -16.8555         0.431881         -19.905
                        0.568956        -33.4907         0.542495        -16.8555         0.438293         160.384         0.435759        -18.9892
                        0.435759        -18.9893          0.43188         -19.905         0.435759        -18.9893         0.658564         170.544
35.7                    0.438284         160.369         0.542476        -16.8675         0.568975        -33.5146         0.435767        -19.0028
                        0.542477        -16.8675         0.474249         179.837         0.542477        -16.8675         0.431883        -19.9192
                        0.568975        -33.5146         0.542476        -16.8674         0.438284         160.369         0.435767        -19.0027
                        0.435767        -19.0028         0.431883        -19.9192         0.435767        -19.0028         0.658552         170.537
35.725                  0.438274         160.355         0.542457        -16.8795         0.568994        -33.5385         0.435775        -19.0163
                        0.542459        -16.8795         0.474289         179.836         0.542459        -16.8794         0.431885        -19.9334
                        0.568994        -33.5385         0.542457        -16.8794         0.438275         160.355         0.435775        -19.0162
                        0.435775        -19.0162         0.431885        -19.9333         0.435775        -19.0163         0.658541         170.531
35.75                   0.438265          160.34         0.542438        -16.8914         0.569013        -33.5624         0.435782        -19.0298
                         0.54244        -16.8915          0.47433         179.835          0.54244        -16.8914         0.431887        -19.9476
                        0.569013        -33.5624         0.542439        -16.8913         0.438265          160.34         0.435782        -19.0297
                        0.435782        -19.0297         0.431887        -19.9475         0.435782        -19.0298         0.658529         170.524
35.775                  0.438256         160.326          0.54242        -16.9034         0.569032        -33.5863          0.43579        -19.0433
                        0.542421        -16.9034         0.474371         179.833         0.542421        -16.9033          0.43189        -19.9618
                        0.569032        -33.5863          0.54242        -16.9033         0.438256         160.326          0.43579        -19.0432
                         0.43579        -19.0432         0.431889        -19.9617          0.43579        -19.0433         0.658518         170.518
35.8                    0.438247         160.311         0.542401        -16.9153         0.569051        -33.6101         0.435798        -19.0568
                        0.542402        -16.9154         0.474412         179.832         0.542402        -16.9153         0.431892         -19.976
                        0.569051        -33.6101         0.542401        -16.9152         0.438247         160.311         0.435798        -19.0567
                        0.435798        -19.0567         0.431891        -19.9759         0.435798        -19.0568         0.658506         170.511
35.825                  0.438238         160.297         0.542382        -16.9273          0.56907         -33.634         0.435805        -19.0703
                        0.542384        -16.9273         0.474453         179.831         0.542384        -16.9273         0.431894        -19.9902
                         0.56907         -33.634         0.542382        -16.9272         0.438238         160.297         0.435805        -19.0702
                        0.435805        -19.0702         0.431893        -19.9901         0.435805        -19.0703         0.658495         170.505
35.85                   0.438229         160.282         0.542363        -16.9392         0.569089        -33.6579         0.435813        -19.0838
                        0.542365        -16.9393         0.474494         179.829         0.542365        -16.9392         0.431896        -20.0044
                        0.569089        -33.6579         0.542363        -16.9392         0.438229         160.282         0.435813        -19.0837
                        0.435813        -19.0837         0.431895        -20.0043         0.435813        -19.0838         0.658483         170.499
35.875                   0.43822         160.268         0.542345        -16.9512         0.569108        -33.6818         0.435821        -19.0973
                        0.542346        -16.9512         0.474535         179.828         0.542346        -16.9512         0.431898        -20.0186
                        0.569108        -33.6818         0.542345        -16.9511          0.43822         160.268         0.435821        -19.0973
                        0.435821        -19.0973         0.431897        -20.0185         0.435821        -19.0973         0.658472         170.492
35.9                     0.43821         160.253         0.542326        -16.9631         0.569127        -33.7057         0.435828        -19.1108
                        0.542327        -16.9632         0.474576         179.826         0.542327        -16.9631           0.4319        -20.0328
                        0.569127        -33.7057         0.542326        -16.9631         0.438211         160.254         0.435828        -19.1108
                        0.435828        -19.1108         0.431899        -20.0327         0.435828        -19.1108          0.65846         170.486
35.925                  0.438201         160.239         0.542307        -16.9751         0.569146        -33.7296         0.435836        -19.1243
                        0.542308        -16.9751         0.474617         179.825         0.542308        -16.9751         0.431902        -20.0469
                        0.569146        -33.7296         0.542307         -16.975         0.438201         160.239         0.435836        -19.1243
                        0.435836        -19.1243         0.431901        -20.0469         0.435836        -19.1243         0.658449         170.479
35.95                   0.438192         160.225         0.542288        -16.9871         0.569165        -33.7535         0.435844        -19.1378
                         0.54229        -16.9871         0.474658         179.824          0.54229         -16.987         0.431904        -20.0611
                        0.569165        -33.7535         0.542288         -16.987         0.438192         160.225         0.435844        -19.1378
                        0.435844        -19.1378         0.431903        -20.0611         0.435844        -19.1378         0.658437         170.473
35.975                  0.438183          160.21         0.542269         -16.999         0.569185        -33.7774         0.435851        -19.1513
                        0.542271         -16.999         0.474699         179.822         0.542271         -16.999         0.431906        -20.0753
                        0.569184        -33.7774         0.542269        -16.9989         0.438183          160.21         0.435852        -19.1513
                        0.435851        -19.1513         0.431905        -20.0753         0.435851        -19.1513         0.658426         170.466
36                      0.438174         160.196          0.54225         -17.011         0.569204        -33.8013         0.435859        -19.1648
                        0.542252         -17.011          0.47474         179.821         0.542252        -17.0109         0.431908        -20.0895
                        0.569203        -33.8013          0.54225        -17.0109         0.438174         160.196         0.435859        -19.1648
                        0.435859        -19.1648         0.431907        -20.0895         0.435859        -19.1648         0.658414          170.46
36.025                  0.438164         160.181         0.542231        -17.0229         0.569223        -33.8252         0.435867        -19.1783
                        0.542233         -17.023         0.474782          179.82         0.542233        -17.0229          0.43191        -20.1037
                        0.569223        -33.8252         0.542231        -17.0228         0.438165         160.181         0.435867        -19.1783
                        0.435867        -19.1783         0.431909        -20.1037         0.435867        -19.1783         0.658403         170.453
36.05                   0.438155         160.167         0.542212        -17.0349         0.569242        -33.8491         0.435875        -19.1918
                        0.542214        -17.0349         0.474823         179.818         0.542214        -17.0349         0.431912        -20.1179
                        0.569242         -33.849         0.542212        -17.0348         0.438155         160.167         0.435875        -19.1918
                        0.435875        -19.1918         0.431911        -20.1178         0.435874        -19.1918         0.658391         170.447
36.075                  0.438146         160.152         0.542193        -17.0468         0.569261        -33.8729         0.435882        -19.2053
                        0.542195        -17.0469         0.474864         179.817         0.542195        -17.0468         0.431915        -20.1321
                        0.569261        -33.8729         0.542194        -17.0468         0.438146         160.152         0.435882        -19.2053
                        0.435882        -19.2053         0.431913         -20.132         0.435882        -19.2053         0.658379          170.44
36.1                    0.438137         160.138         0.542175        -17.0588         0.569281        -33.8968          0.43589        -19.2188
                        0.542176        -17.0588         0.474905         179.815         0.542176        -17.0588         0.431917        -20.1463
                         0.56928        -33.8968         0.542175        -17.0587         0.438137         160.138          0.43589        -19.2188
                         0.43589        -19.2188         0.431915        -20.1462          0.43589        -19.2188         0.658368         170.434
36.125                  0.438127         160.123         0.542156        -17.0707           0.5693        -33.9207         0.435898        -19.2323
                        0.542157        -17.0708         0.474947         179.814         0.542157        -17.0707         0.431919        -20.1605
                        0.569299        -33.9207         0.542156        -17.0707         0.438128         160.123         0.435898        -19.2323
                        0.435898        -19.2323         0.431918        -20.1604         0.435898        -19.2323         0.658356         170.427
36.15                   0.438118         160.109         0.542137        -17.0827         0.569319        -33.9446         0.435906        -19.2458
                        0.542138        -17.0827         0.474988         179.813         0.542139        -17.0827         0.431921        -20.1747
                        0.569319        -33.9446         0.542137        -17.0826         0.438118         160.109         0.435906        -19.2458
                        0.435905        -19.2458          0.43192        -20.1746         0.435905        -19.2458         0.658345         170.421
36.175                  0.438109         160.094         0.542118        -17.0947         0.569338        -33.9685         0.435913        -19.2593
                        0.542119        -17.0947         0.475029         179.811          0.54212        -17.0946         0.431923        -20.1889
                        0.569338        -33.9685         0.542118        -17.0946         0.438109         160.094         0.435913        -19.2593
                        0.435913        -19.2593         0.431922        -20.1888         0.435913        -19.2593         0.658333         170.415
36.2                    0.438099          160.08         0.542099        -17.1066         0.569357        -33.9924         0.435921        -19.2728
                        0.542101        -17.1067          0.47507          179.81         0.542101        -17.1066         0.431925        -20.2031