! Touchstone file exported from HFSS 2019.2.0
!        File:           /home/riccardo/Ansoft/test.aedt
!        Generated:      12:55:08 PM  Dec 20, 2019
!        Design:         HFSSDesign1
!        Project:        test
!        Setup:          Setup1
!        Solution:       LastAdaptive
!
! Variables:
!        L = 1000mm
!        OD = 10mm
!        Z0 = 30ohm
!
# GHZ S MA R 50.000000
! Modal data exported
! Port[1] = 1:1
! Port[2] = 2:1
0.050                          0.436611602928114 -158.548555194744 0.897304047489639 -68.7705527596057 0.897304047489638 -68.7705527596057 0.436611096916709 -158.556139422579 
! Gamma         !               0.00271485723693804 1.15543604102987 0.00271526055314444 1.15543651652683 
! Port Impedance50               0                50               0                
0.055                          0.436611602928114 -158.548555194744 0.897304047489639 -68.7705527596057 0.897304047489638 -68.7705527596057 0.436611096916709 -158.556139422579 
! Gamma         !               0.00271485723693804 1.15543604102987 0.00271526055314444 1.15543651652683 
! Port Impedance50               0                50               0                
0.060                          0.436611602928114 -158.548555194744 0.897304047489639 -68.7705527596057 0.897304047489638 -68.7705527596057 0.436611096916709 -158.556139422579 
! Gamma         !               0.00271485723693804 1.15543604102987 0.00271526055314444 1.15543651652683 
! Port Impedance50               0                50               0                

